
                                 *****************
                                 * O   R   C   A *
                                 *****************

           --- An Ab Initio, DFT and Semiempirical electronic structure package ---

                  #######################################################
                  #                        -***-                        #
                  #  Department of molecular theory and spectroscopy    #
                  #              Directorship: Frank Neese              #
                  # Max Planck Institute for Chemical Energy Conversion #
                  #                  D-45470 Muelheim/Ruhr              #
                  #                       Germany                       #
                  #                                                     #
                  #                  All rights reserved                #
                  #                        -***-                        #
                  #######################################################


                         Program Version 3.0.3 - RELEASE   -


 With contributions from (in alphabetic order):
   Ute Becker             : Parallelization
   Dmytro Bykov           : SCF Hessian
   Dmitry Ganyushin       : Spin-Orbit,Spin-Spin,Magnetic field MRCI
   Andreas Hansen         : Spin unrestricted coupled pair/coupled cluster methods
   Dimitrios Liakos       : Extrapolation schemes; parallel MDCI
   Robert Izsak           : Overlap fitted RIJCOSX, COSX-SCS-MP3
   Christian Kollmar      : KDIIS, OOCD, Brueckner-CCSD(T), CCSD density
   Simone Kossmann        : Meta GGA functionals, TD-DFT gradient, OOMP2, MP2 Hessian
   Taras Petrenko         : DFT Hessian,TD-DFT gradient, ASA and ECA modules, normal mode analysis, Resonance Raman, ABS, FL, XAS/XES, NRVS
   Christoph Reimann      : Effective Core Potentials
   Michael Roemelt        : Restricted open shell CIS
   Christoph Riplinger    : Improved optimizer, TS searches, QM/MM, DLPNO-CCSD
   Barbara Sandhoefer     : DKH picture change effects
   Igor Schapiro          : Molecular dynamics
   Kantharuban Sivalingam : CASSCF convergence, NEVPT2
   Boris Wezisla          : Elementary symmetry handling
   Frank Wennmohs         : Technical directorship


 We gratefully acknowledge several colleagues who have allowed us to
 interface, adapt or use parts of their codes:
   Stefan Grimme, W. Hujo, H. Kruse, T. Risthaus : VdW corrections, initial TS optimization,
                                                   DFT functionals, gCP
   Ed Valeev                                     : LibInt (2-el integral package), F12 methods
   Garnet Chan, S. Sharma, R. Olivares           : DMRG
   Ulf Ekstrom                                   : XCFun DFT Library
   Mihaly Kallay                                 : mrcc  (arbitrary order and MRCC methods)
   Andreas Klamt, Michael Diedenhofen            : otool_cosmo (COSMO solvation model)
   Frank Weinhold                                : gennbo (NPA and NBO analysis)
   Christopher J. Cramer and Donald G. Truhlar   : smd solvation model


 Your calculation uses the libint2 library for the computation of 2-el integrals
 For citations please refer to: http://libint.valeyev.net

 This ORCA versions uses:
   CBLAS   interface :  Fast vector & matrix operations
   LAPACKE interface :  Fast linear algebra routines
   SCALAPACK package :  Parallel linear algebra routines


Your calculation utilizes the basis: Ahlrichs-TZV
Cite in your paper:
H - Kr: A. Schaefer, H. Horn and R. Ahlrichs, J. Chem. Phys. 97, 2571 (1992).

The def2-TZV basis will be loaded
Cite in your paper:
 	F. Weigend, R. Ahlrichs, Phys. Chem. Chem. Phys. 2005, 7, 3297.

Your calculation utilizes the atom-pairwise dispersion correction
with the Becke-Johnson damping scheme (D3BJ)
Cite in your paper:
S.Grimme, S.Ehrlich, L.Goerigk, J Comput Chem, (2011), 32, 1456–1465 
S.Grimme, J.Antony, S.Ehrlich and H.Krieg, J.Chem.Phys., 132, (2010), 154104 
   

================================================================================
                                        WARNINGS
                       Please study these warnings very carefully!
================================================================================

WARNING: The RI method has been chosen with no auxiliary basis (AUX or GTOAUX in BASIS block)
        Standard TZV/J expansion basis used (GTOAUX=TZV_J)

Now building the actual basis set
cite the ECPs for Pb [SD(60,MDF)] as follows:
  B. Metz, H. Stoll, M. Dolg, J. Chem. Phys. 113, 2563 (2000).

ECP parameters for Pb [SD(60,MDF)] have been obtained from:
  pseudopotential library of the Stuttgart/Cologne group
  http://www.theochem.uni-stuttgart.de/pseudopotentials/

cite the ECP basis sets for Pb [DEF2-TZVP] as follows:
  F. Weigend, R. Ahlrichs; Phys. Chem. Chem. Phys. 7, 3297(2005).

ECP basis sets for Pb [DEF2-TZVP] have been obtained from:
  Turbomole basis set library
  ftp://ftp.chemie.uni-karlsruhe.de/pub/basen/



INFO   : the flag for use of LIBINT has been found!

================================================================================
                                       INPUT FILE
================================================================================
NAME = PbMACl3_mp2_md2_6.orca
|  1> ! RIJCOSX RI-B2PLYP D3BJ def2-TZVP ECP{def2-TZVP} TIGHTSCF Grid5 FinalGrid6 SlowConv MORead
|  2> %method
|  3>  RunTyp Gradient
|  4>  end
|  5> %maxcore 1000
|  6> %moinp "previous.gbw"
|  7> *xyz 0 1
|  8> C -0.394281 0.276013 -0.426662 
|  9> N -1.165380 -0.685592 -1.253010 
| 10> H 0.248796 -0.278576 0.260517 
| 11> H -1.090820 0.897444 0.140826 
| 12> H 0.215705 0.904875 -1.079130 
| 13> H -1.783150 -1.324970 -0.698370 
| 14> H -0.582260 -1.326300 -1.835140 
| 15> H -1.813140 -0.240924 -1.938260 
| 16> Pb -2.742690 -4.042960 -2.712530 
| 17> Cl -1.550790 -3.203310 -4.832550 
| 18> Cl -2.764890 1.149980 -2.941600 
| 19> Cl -4.798510 -3.319440 -1.344990 
| 20> *
| 21> 
| 22>                          ****END OF INPUT****
================================================================================

                     *******************************
                     * Energy+Gradient Calculation *
                     *******************************

---------------------------------
CARTESIAN COORDINATES (ANGSTROEM)
---------------------------------
  C     -0.394281    0.276013   -0.426662
  N     -1.165380   -0.685592   -1.253010
  H      0.248796   -0.278576    0.260517
  H     -1.090820    0.897444    0.140826
  H      0.215705    0.904875   -1.079130
  H     -1.783150   -1.324970   -0.698370
  H     -0.582260   -1.326300   -1.835140
  H     -1.813140   -0.240924   -1.938260
  Pb    -2.742690   -4.042960   -2.712530
  Cl    -1.550790   -3.203310   -4.832550
  Cl    -2.764890    1.149980   -2.941600
  Cl    -4.798510   -3.319440   -1.344990

----------------------------
CARTESIAN COORDINATES (A.U.)
----------------------------
  NO LB      ZA    FRAG    MASS        X           Y           Z
   0 C     6.0000    0    12.011         -0.745083109808605          0.521588979402006         -0.806274331751109
   1 N     7.0000    0    14.007         -2.202249041949148         -1.295581119607339         -2.367845743064668
   2 H     1.0000    0     1.008          0.470156303215072         -0.526432347483247          0.492305783230763
   3 H     1.0000    0     1.008         -2.061351061403979          1.695923380530824          0.266122572535594
   4 H     1.0000    0     1.008          0.407623375717484          1.709965935431992         -2.039260162898440
   5 H     1.0000    0     1.008         -3.369665155701680         -2.503830435661641         -1.319728040146585
   6 H     1.0000    0     1.008         -1.100311938736988         -2.506343771419756         -3.467912017404246
   7 H     1.0000    0     1.008         -3.426338042457978         -0.455280379088844         -3.662780576334205
   8 Pb   22.0000*   0   207.200  -5.182932970244478  -7.640087170398264  -5.125938830045413
   9 Cl   17.0000    0    35.453         -2.930568391223737         -6.053378622051285         -9.132196028481145
  10 Cl   17.0000    0    35.453         -5.224884890417529          2.173147259486761         -5.558818395542755
  11 Cl   17.0000    0    35.453         -9.067869750882465         -6.272832517983560         -2.541662752862744
* core charge reduced due to ECP

--------------------------------
INTERNAL COORDINATES (ANGSTROEM)
--------------------------------
 C      0   0   0   0.000000     0.000     0.000
 N      1   0   0   1.483957     0.000     0.000
 H      1   2   0   1.092397   109.099     0.000
 H      1   2   3   1.092422   109.061   240.173
 H      1   2   3   1.092367   109.305   120.114
 H      2   1   3   1.047888   114.015    60.210
 H      2   1   3   1.043749   114.711   299.789
 H      2   1   3   1.042540   114.361   179.708
 Pb     6   2   1   3.516394   109.227   196.352
 Cl     9   6   2   2.572960    95.354   357.306
 Cl     8   2   1   1.961411   160.082     0.103
 Cl     9   6   2   2.572944    72.316   220.816

---------------------------
INTERNAL COORDINATES (A.U.)
---------------------------
 C      0   0   0   0.000000     0.000     0.000
 N      1   0   0   2.804273     0.000     0.000
 H      1   2   0   2.064332   109.099     0.000
 H      1   2   3   2.064378   109.061   240.173
 H      1   2   3   2.064274   109.305   120.114
 H      2   1   3   1.980222   114.015    60.210
 H      2   1   3   1.972399   114.711   299.789
 H      2   1   3   1.970116   114.361   179.708
 Pb     6   2   1   6.645022   109.227   196.352
 Cl     9   6   2   4.862190    95.354   357.306
 Cl     8   2   1   3.706530   160.082     0.103
 Cl     9   6   2   4.862160    72.316   220.816

---------------------
BASIS SET INFORMATION
---------------------
There are 5 groups of distinct atoms

 Group   1 Type C   : 11s6p2d1f contracted to 5s3p2d1f pattern {62111/411/11/1}
 Group   2 Type N   : 11s6p2d1f contracted to 5s3p2d1f pattern {62111/411/11/1}
 Group   3 Type H   : 5s1p contracted to 3s1p pattern {311/1}
 Group   4 Type Pb  : 10s9p8d2f contracted to 6s5p3d2f pattern {421111/33111/611/11}
 Group   5 Type Cl  : 14s9p3d1f contracted to 5s5p2d1f pattern {73211/51111/21/1}

Atom   0C    basis set group =>   1
Atom   1N    basis set group =>   2
Atom   2H    basis set group =>   3
Atom   3H    basis set group =>   3
Atom   4H    basis set group =>   3
Atom   5H    basis set group =>   3
Atom   6H    basis set group =>   3
Atom   7H    basis set group =>   3
Atom   8Pb   basis set group =>   4
Atom   9Cl   basis set group =>   5
Atom  10Cl   basis set group =>   5
Atom  11Cl   basis set group =>   5
-------------------------------
AUXILIARY BASIS SET INFORMATION
-------------------------------
There are 5 groups of distinct atoms

 Group   1 Type C   : 12s5p4d2f1g contracted to 6s4p3d1f1g pattern {711111/2111/211/2/1}
 Group   2 Type N   : 12s5p4d2f1g contracted to 6s4p3d1f1g pattern {711111/2111/211/2/1}
 Group   3 Type H   : 5s2p1d contracted to 3s1p1d pattern {311/2/1}
 Group   4 Type Pb  : 31s12p8d6f3g contracted to 31s12p8d6f3g pattern {1111111111111111111111111111111/111111111111/11111111/111111/111}
 Group   5 Type Cl  : 14s5p5d2f1g contracted to 8s4p3d1f1g pattern {71111111/2111/311/2/1}

Atom   0C    basis set group =>   1
Atom   1N    basis set group =>   2
Atom   2H    basis set group =>   3
Atom   3H    basis set group =>   3
Atom   4H    basis set group =>   3
Atom   5H    basis set group =>   3
Atom   6H    basis set group =>   3
Atom   7H    basis set group =>   3
Atom   8Pb   basis set group =>   4
Atom   9Cl   basis set group =>   5
Atom  10Cl   basis set group =>   5
Atom  11Cl   basis set group =>   5

-------------------------
ECP PARAMETER INFORMATION
-------------------------

 Group 1, Type Pb ECP SD(60,MDF) (replacing 60 core electrons, lmax=5)

Atom   8Pb   ECP group =>   1


------------------------------------------------------------------------------
                           ORCA GTO INTEGRAL CALCULATION
                           -- RI-GTO INTEGRALS CHOSEN --
------------------------------------------------------------------------------

                         BASIS SET STATISTICS AND STARTUP INFO

Gaussian basis set:
 # of primitive gaussian shells          ...  186
 # of primitive gaussian functions       ...  420
 # of contracted shells                  ...  101
 # of contracted basis functions         ...  259
 Highest angular momentum                ...    3
 Maximum contraction depth               ...    7
Auxiliary gaussian basis set:
 # of primitive gaussian shells          ...  237
 # of primitive gaussian functions       ...  643
 # of contracted shells                  ...  171
 # of contracted aux-basis functions     ...  493
 Highest angular momentum                ...    4
 Maximum contraction depth               ...    7
Ratio of auxiliary to basis functions    ...  1.90
Integral package used                  ... LIBINT
 One Electron integrals                  
   ECP integrals                         ... done
 Ordering auxiliary basis shells         ... done
 Integral threshhold             Thresh  ...  2.500e-11
 Primitive cut-off               TCut    ...  2.500e-12
 Pre-screening matrix                    ... done
 Shell pair data                         ... 
 Ordering of the shell pairs             ... done (   0.001 sec) 4046 of 5151 pairs
 Determination of significant pairs      ... done (   0.000 sec)
 Creation of shell pair data             ... done (   0.001 sec)
 Storage of shell pair data              ... done (   0.001 sec)
 Shell pair data done in (   0.003 sec)
 Computing two index integrals           ... done
 Cholesky decomposition of the V-matrix  ... done


Timings:
 Total evaluation time                   ...   0.553 sec (  0.009 min)
 One electron matrix time                ...   0.262 sec (  0.004 min) = 47.4%
 Schwartz matrix evaluation time         ...   0.219 sec (  0.004 min) = 39.6%
 Two index repulsion integral time       ...   0.008 sec (  0.000 min) =  1.5%
 Cholesky decomposition of V             ...   0.033 sec (  0.001 min) =  6.0%
 Three index repulsion integral time     ...   0.000 sec (  0.000 min) =  0.0%

-------------------------------------------------------------------------------
                                 ORCA SCF
-------------------------------------------------------------------------------

------------
SCF SETTINGS
------------
Hamiltonian:
 Density Functional     Method          .... DFT(GTOs)
 Exchange Functional    Exchange        .... B88
   X-Alpha parameter    XAlpha          ....  0.666667
   Becke's b parameter  XBeta           ....  0.004200
 Correlation Functional Correlation     .... LYP
 LDA part of GGA corr.  LDAOpt          .... VWN-3
 Gradients option       PostSCFGGA      .... off
 Hybrid DFT is turned on
   Fraction HF Exchange ScalHFX         ....  0.530000
   Scaling of DF-GGA-X  ScalDFX         ....  0.470000
   Scaling of DF-GGA-C  ScalDFC         ....  0.730000
   Scaling of DF-LDA-C  ScalLDAC        ....  0.730000
   Perturbative correction              ....  0.270000
 RI-approximation to the Coulomb term is turned on
   Number of auxiliary basis functions  .... 493
   RIJ-COSX (HFX calculated with COS-X)).... on


General Settings:
 Integral files         IntName         .... PbMACl3_mp2_md2_6.orca
 Hartree-Fock type      HFTyp           .... RHF
 Total Charge           Charge          ....    0
 Multiplicity           Mult            ....    1
 Number of Electrons    NEL             ....   92
 Basis Dimension        Dim             ....  259
 Nuclear Repulsion      ENuc            ....    503.5042154194 Eh

Convergence Acceleration:
 DIIS                   CNVDIIS         .... on
   Start iteration      DIISMaxIt       ....     0
   Startup error        DIISStart       ....  0.200000
   # of expansion vecs  DIISMaxEq       ....     5
   Bias factor          DIISBfac        ....   1.050
   Max. coefficient     DIISMaxC        ....  10.000
 Newton-Raphson         CNVNR           .... off
 SOSCF                  CNVSOSCF        .... on
   Start iteration      SOSCFMaxIt      ....   150
   Startup grad/error   SOSCFStart      ....  0.001000
 Level Shifting         CNVShift        .... on
   Level shift para.    LevelShift      ....    0.2500
   Turn off err/grad.   ShiftErr        ....    0.0000
 Zerner damping         CNVZerner       .... off
 Static damping         CNVDamp         .... on
   Fraction old density DampFac         ....    0.8500
   Max. Damping (<1)    DampMax         ....    0.9800
   Min. Damping (>=0)   DampMin         ....    0.0000
   Turn off err/grad.   DampErr         ....    0.0300
 Fernandez-Rico         CNVRico         .... off

SCF Procedure:
 Maximum # iterations   MaxIter         ....   125
 SCF integral mode      SCFMode         .... Direct
   Integral package                     .... LIBINT
 Reset frequeny         DirectResetFreq ....    20
 Integral Threshold     Thresh          ....  2.500e-11 Eh
 Primitive CutOff       TCut            ....  2.500e-12 Eh

Convergence Tolerance:
 Convergence Check Mode ConvCheckMode   .... Total+1el-Energy
 Energy Change          TolE            ....  1.000e-08 Eh
 1-El. energy change                    ....  1.000e-05 Eh
 Orbital Gradient       TolG            ....  1.000e-05
 Orbital Rotation angle TolX            ....  1.000e-05
 DIIS Error             TolErr          ....  5.000e-07


Diagonalization of the overlap matrix:
Smallest eigenvalue                        ... 1.110e-03
Time for diagonalization                   ...    0.162 sec
Threshold for overlap eigenvalues          ... 1.000e-08
Number of eigenvalues below threshold      ... 0
Time for construction of square roots      ...    0.005 sec
Total time needed                          ...    0.167 sec

---------------------
INITIAL GUESS: MOREAD
---------------------
Guess MOs are being read from file: previous.gbw
Input geometry compatible with but different from current geometry
Input basis set matches current basis set (good)
MOs were renormalized
MOs were reorthogonalized (Schmidt)
                      ------------------
                      INITIAL GUESS DONE (   0.1 sec)
                      ------------------
-------------------
DFT GRID GENERATION
-------------------

General Integration Accuracy     IntAcc      ...  5.010
Radial Grid Type                 RadialGrid  ... Gauss-Chebyshev
Angular Grid (max. acc.)         AngularGrid ... Lebedev-434
Angular grid pruning method      GridPruning ... 3 (G Style)
Weight generation scheme         WeightScheme... Becke
Basis function cutoff            BFCut       ...    1.0000e-11
Integration weight cutoff        WCut        ...    1.0000e-14
Grids for H and He will be reduced by one unit

# of grid points (after initial pruning)     ... 115882 (   0.0 sec)
# of grid points (after weights+screening)   ... 109842 (   0.2 sec)
nearest neighbour list constructed           ...    0.0 sec
Grid point re-assignment to atoms done       ...    0.0 sec
Grid point division into batches done        ...    1.0 sec
Reduced shell lists constructed in    3.4 sec

Total number of grid points                  ...   109842
Total number of batches                      ...     1724
Average number of points per batch           ...       63
Average number of grid points per atom       ...     9154
Average number of shells per batch           ...    48.76 (48.28%)
Average number of basis functions per batch  ...   124.58 (48.10%)
Average number of large shells per batch     ...    35.97 (73.77%)
Average number of large basis fcns per batch ...    91.22 (73.22%)
Maximum spatial batch extension              ...  33.38, 34.71, 35.86 au
Average spatial batch extension              ...   2.52,  2.50,  2.50 au

Time for grid setup =    3.679 sec

--------------------
COSX GRID GENERATION
--------------------

General Integration Accuracy     IntAcc      ...  3.340
Radial Grid Type                 RadialGrid  ... Gauss-Chebyshev
Angular Grid (max. acc.)         AngularGrid ... Lebedev-50
Angular grid pruning method      GridPruning ... 3 (G Style)
Weight generation scheme         WeightScheme... Becke
Basis function cutoff            BFCut       ...    1.0000e-11
Integration weight cutoff        WCut        ...    1.0000e-14
Grids for H and He will be reduced by one unit

# of grid points (after initial pruning)     ...   6578 (   0.0 sec)
# of grid points (after weights+screening)   ...   6245 (   0.0 sec)
nearest neighbour list constructed           ...    0.0 sec
Grid point re-assignment to atoms done       ...    0.0 sec
Grid point division into batches done        ...    0.0 sec
Reduced shell lists constructed in    0.2 sec

Total number of grid points                  ...     6245
Total number of batches                      ...      104
Average number of points per batch           ...       60
Average number of grid points per atom       ...      520
Average number of shells per batch           ...    59.61 (59.02%)
Average number of basis functions per batch  ...   155.67 (60.10%)
Average number of large shells per batch     ...    44.87 (75.27%)
Average number of large basis fcns per batch ...   115.65 (74.29%)
Maximum spatial batch extension              ...  44.74, 32.19, 32.38 au
Average spatial batch extension              ...   7.05,  6.65,  6.60 au

Overlap Fitting                  UseSFitting ... on
Constructing numerical overlap ... done (      0.1 sec)
Inverting numerical overlap    ... done (      0.0 sec)
Obtaining analytic overlap     ... done (      0.0 sec)
Final contraction and storage  ... done (      0.0 sec)


General Integration Accuracy     IntAcc      ...  3.670
Radial Grid Type                 RadialGrid  ... Gauss-Chebyshev
Angular Grid (max. acc.)         AngularGrid ... Lebedev-50
Angular grid pruning method      GridPruning ... 3 (G Style)
Weight generation scheme         WeightScheme... Becke
Basis function cutoff            BFCut       ...    1.0000e-11
Integration weight cutoff        WCut        ...    1.0000e-14
Grids for H and He will be reduced by one unit

# of grid points (after initial pruning)     ...   8124 (   0.0 sec)
# of grid points (after weights+screening)   ...   7694 (   0.0 sec)
nearest neighbour list constructed           ...    0.0 sec
Grid point re-assignment to atoms done       ...    0.0 sec
Grid point division into batches done        ...    0.0 sec
Reduced shell lists constructed in    0.2 sec

Total number of grid points                  ...     7694
Total number of batches                      ...      124
Average number of points per batch           ...       62
Average number of grid points per atom       ...      641
Average number of shells per batch           ...    59.03 (58.45%)
Average number of basis functions per batch  ...   154.06 (59.48%)
Average number of large shells per batch     ...    44.76 (75.82%)
Average number of large basis fcns per batch ...   114.71 (74.46%)
Maximum spatial batch extension              ...  46.50, 33.06, 34.16 au
Average spatial batch extension              ...   6.53,  6.02,  5.95 au

Overlap Fitting                  UseSFitting ... on
Constructing numerical overlap ... done (      0.1 sec)
Inverting numerical overlap    ... done (      0.0 sec)
Obtaining analytic overlap     ... done (      0.0 sec)
Final contraction and storage  ... done (      0.0 sec)


General Integration Accuracy     IntAcc      ...  4.010
Radial Grid Type                 RadialGrid  ... Gauss-Chebyshev
Angular Grid (max. acc.)         AngularGrid ... Lebedev-110
Angular grid pruning method      GridPruning ... 3 (G Style)
Weight generation scheme         WeightScheme... Becke
Basis function cutoff            BFCut       ...    1.0000e-11
Integration weight cutoff        WCut        ...    1.0000e-14
Grids for H and He will be reduced by one unit

# of grid points (after initial pruning)     ...  15170 (   0.0 sec)
# of grid points (after weights+screening)   ...  14498 (   0.0 sec)
nearest neighbour list constructed           ...    0.0 sec
Grid point re-assignment to atoms done       ...    0.0 sec
Grid point division into batches done        ...    0.0 sec
Reduced shell lists constructed in    0.4 sec

Total number of grid points                  ...    14498
Total number of batches                      ...      231
Average number of points per batch           ...       62
Average number of grid points per atom       ...     1208
Average number of shells per batch           ...    55.49 (54.94%)
Average number of basis functions per batch  ...   144.36 (55.74%)
Average number of large shells per batch     ...    41.55 (74.87%)
Average number of large basis fcns per batch ...   106.50 (73.77%)
Maximum spatial batch extension              ...  31.12, 29.84, 30.75 au
Average spatial batch extension              ...   5.35,  5.22,  5.06 au

Overlap Fitting                  UseSFitting ... on
Constructing numerical overlap ... done (      0.2 sec)
Inverting numerical overlap    ... done (      0.0 sec)
Obtaining analytic overlap     ... done (      0.0 sec)
Final contraction and storage  ... done (      0.0 sec)

Time for X-Grid setup             =    1.399 sec
--------------
SCF ITERATIONS
--------------
ITER       Energy         Delta-E        Max-DP      RMS-DP      [F,P]     Damp
               ***  Starting incremental Fock matrix formation  ***
  0  -1668.5594222226   0.000000000000 0.03044038  0.00053457  0.6003710 0.8500
  1  -1668.6054424511  -0.046020228521 0.02566950  0.00063103  0.5109142 0.8500
                               ***Turning on DIIS***
  2  -1668.6497568485  -0.044314397369 0.02249110  0.00060781  0.4345786 0.8500
  3  -1668.6884416700  -0.038684821537 0.02108506  0.00054582  0.3696282 0.8500
  4  -1668.7222107452  -0.033769075191 0.01968567  0.00050140  0.3143112 0.8500
  5  -1668.7515858469  -0.029375101657 0.01828916  0.00046357  0.2672212 0.8500
  6  -1668.7774984233  -0.025912576383 0.01677920  0.00042370  0.2271709 0.8500
  7  -1668.8004515373  -0.022953114015 0.01527140  0.00038459  0.1931200 0.8500
  8  -1668.8207520391  -0.020300501827 0.01368098  0.00034426  0.1641745 0.8500
  9  -1668.8385440134  -0.017791974264 0.01207957  0.00030420  0.1395667 0.8500
 10  -1668.8540670958  -0.015523082432 0.01057587  0.00026690  0.1186457 0.8500
 11  -1668.8675872315  -0.013520135678 0.00922356  0.00023343  0.1008594 0.8500
 12  -1668.8793461502  -0.011758918684 0.00802687  0.00020380  0.0857388 0.8500
 13  -1668.8895538258  -0.010207675685 0.00696726  0.00017755  0.0728845 0.8500
 14  -1668.8983941598  -0.008840333923 0.00602954  0.00015431  0.0619570 0.8500
 15  -1668.9060332296  -0.007639069814 0.00520519  0.00013383  0.0526676 0.8500
 16  -1668.9126217728  -0.006588543201 0.00448653  0.00011590  0.0447708 0.8500
 17  -1668.9182950459  -0.005673273118 0.00386367  0.00010029  0.0380578 0.8500
 18  -1668.9231730556  -0.004878009735 0.00335371  0.00008671  0.0323512 0.8500
 19  -1668.9273616809  -0.004188625280 0.01952413  0.00049955  0.0275003 0.0000
               *** Restarting incremental Fock matrix formation ***
                                   *** Resetting DIIS ***
                      *** Initiating the SOSCF procedure ***
                           *** Shutting down DIIS ***
                      *** Re-Reading the Fockian *** 
                      *** Removing any level shift *** 
ITER      Energy       Delta-E        Grad      Rot      Max-DP    RMS-DP
 20  -1668.95426214  -0.0269004611  0.000602  0.000602  0.001393  0.000029
               *** Restarting incremental Fock matrix formation ***
 21  -1668.95192804   0.0023341031  0.000502  0.002331  0.001497  0.000035
 22  -1668.95193501  -0.0000069759  0.000189  0.001823  0.001036  0.000021
 23  -1668.95193624  -0.0000012288  0.000200  0.000167  0.000376  0.000008
 24  -1668.95193708  -0.0000008391  0.000023  0.000107  0.000076  0.000002
 25  -1668.95193717  -0.0000000875  0.000010  0.000036  0.000028  0.000000
 26  -1668.95193717  -0.0000000022  0.000005  0.000031  0.000019  0.000000
                  ***Gradient check signals convergence***
              ***Rediagonalizing the Fockian in SOSCF/NRSCF***

               *****************************************************
               *                     SUCCESS                       *
               *           SCF CONVERGED AFTER  27 CYCLES          *
               *****************************************************

Old exchange energy                            =    -59.142758201 Eh
New exchange energy                            =    -59.145053140 Eh
Exchange energy change after final integration =     -0.002294939 Eh
Total energy after final integration           =  -1668.954232118 Eh
Final COS-X integration done in                =    16.420 sec

----------------
TOTAL SCF ENERGY
----------------

Total Energy       :        -1668.95423212 Eh          -45414.55349 eV

Components:
Nuclear Repulsion  :          503.50421542 Eh           13701.04625 eV
Electronic Energy  :        -2172.45844754 Eh          -59115.59974 eV

One Electron Energy:        -3377.05198273 Eh          -91894.25626 eV
Two Electron Energy:         1204.59353519 Eh           32778.65653 eV

Virial components:
Potential Energy   :        -3206.28106703 Eh          -87247.34340 eV
Kinetic Energy     :         1537.32683492 Eh           41832.78992 eV
Virial Ratio       :            2.08562096


DFT components:
N(Alpha)           :       46.000006120403 electrons
N(Beta)            :       46.000006120403 electrons
N(Total)           :       92.000012240806 electrons
E(X)               :      -52.536461339685 Eh       
E(C)               :       -2.592541748027 Eh       
E(XC)              :      -55.129003087712 Eh       

---------------
SCF CONVERGENCE
---------------

  Last Energy change         ...   -6.6887e-09  Tolerance :   1.0000e-08
  Last MAX-Density change    ...    4.7036e-13  Tolerance :   1.0000e-07
  Last RMS-Density change    ...    1.9654e-15  Tolerance :   5.0000e-09
  Last Orbital Gradient      ...    1.1914e-06  Tolerance :   1.0000e-05
  Last Orbital Rotation      ...    3.8511e-06  Tolerance :   1.0000e-05

             **** THE GBW FILE WAS UPDATED (PbMACl3_mp2_md2_6.orca.gbw) ****
             **** DENSITY FILE WAS UPDATED (PbMACl3_mp2_md2_6.orca.scfp.tmp) ****
             **** ENERGY FILE WAS UPDATED (PbMACl3_mp2_md2_6.orca.en.tmp) ****
----------------
ORBITAL ENERGIES
----------------

  NO   OCC          E(Eh)            E(eV) 
   0   2.0000    -102.884353     -2799.6256 
   1   2.0000    -102.883311     -2799.5972 
   2   2.0000    -102.753899     -2796.0757 
   3   2.0000     -14.988268      -407.8515 
   4   2.0000     -10.714456      -291.5552 
   5   2.0000      -9.890193      -269.1258 
   6   2.0000      -9.889092      -269.0959 
   7   2.0000      -9.759944      -265.5816 
   8   2.0000      -7.527256      -204.8270 
   9   2.0000      -7.526143      -204.7968 
  10   2.0000      -7.525692      -204.7845 
  11   2.0000      -7.525082      -204.7679 
  12   2.0000      -7.524597      -204.7547 
  13   2.0000      -7.523979      -204.7379 
  14   2.0000      -7.396755      -201.2759 
  15   2.0000      -7.395665      -201.2463 
  16   2.0000      -7.395631      -201.2453 
  17   2.0000      -5.871672      -159.7763 
  18   2.0000      -3.646759       -99.2334 
  19   2.0000      -3.642225       -99.1100 
  20   2.0000      -3.637281       -98.9754 
  21   2.0000      -1.157782       -31.5049 
  22   2.0000      -1.037261       -28.2253 
  23   2.0000      -1.034155       -28.1408 
  24   2.0000      -1.029614       -28.0172 
  25   2.0000      -1.029185       -28.0056 
  26   2.0000      -1.028959       -27.9994 
  27   2.0000      -0.895861       -24.3776 
  28   2.0000      -0.891837       -24.2681 
  29   2.0000      -0.869226       -23.6528 
  30   2.0000      -0.773586       -21.0503 
  31   2.0000      -0.688109       -18.7244 
  32   2.0000      -0.672110       -18.2890 
  33   2.0000      -0.612149       -16.6574 
  34   2.0000      -0.599879       -16.3235 
  35   2.0000      -0.524038       -14.2598 
  36   2.0000      -0.523313       -14.2401 
  37   2.0000      -0.419359       -11.4113 
  38   2.0000      -0.380274       -10.3478 
  39   2.0000      -0.378613       -10.3026 
  40   2.0000      -0.368831       -10.0364 
  41   2.0000      -0.366730        -9.9792 
  42   2.0000      -0.332547        -9.0491 
  43   2.0000      -0.267087        -7.2678 
  44   2.0000      -0.253915        -6.9094 
  45   2.0000      -0.253433        -6.8963 
  46   0.0000      -0.116972        -3.1830 
  47   0.0000      -0.077510        -2.1092 
  48   0.0000       0.003297         0.0897 
  49   0.0000       0.008420         0.2291 
  50   0.0000       0.061784         1.6812 
  51   0.0000       0.063218         1.7203 
  52   0.0000       0.087792         2.3889 
  53   0.0000       0.100338         2.7303 
  54   0.0000       0.111379         3.0308 
  55   0.0000       0.127475         3.4688 
  56   0.0000       0.129759         3.5309 
  57   0.0000       0.136971         3.7272 
  58   0.0000       0.162156         4.4125 
  59   0.0000       0.184307         5.0153 
  60   0.0000       0.189582         5.1588 
  61   0.0000       0.196245         5.3401 
  62   0.0000       0.231334         6.2949 
  63   0.0000       0.242938         6.6107 
  64   0.0000       0.254935         6.9371 
  65   0.0000       0.259426         7.0593 
  66   0.0000       0.274803         7.4778 
  67   0.0000       0.291678         7.9370 
  68   0.0000       0.304273         8.2797 
  69   0.0000       0.332605         9.0506 
  70   0.0000       0.391962        10.6658 
  71   0.0000       0.398529        10.8445 
  72   0.0000       0.400685        10.9032 
  73   0.0000       0.424511        11.5515 
  74   0.0000       0.429617        11.6905 
  75   0.0000       0.437291        11.8993 
  76   0.0000       0.440597        11.9893 
  77   0.0000       0.451011        12.2726 
  78   0.0000       0.466556        12.6956 
  79   0.0000       0.468180        12.7398 
  80   0.0000       0.483782        13.1644 
  81   0.0000       0.491056        13.3623 
  82   0.0000       0.494367        13.4524 
  83   0.0000       0.496060        13.4985 
  84   0.0000       0.503915        13.7122 
  85   0.0000       0.517952        14.0942 
  86   0.0000       0.523655        14.2494 
  87   0.0000       0.530038        14.4231 
  88   0.0000       0.545122        14.8335 
  89   0.0000       0.550886        14.9904 
  90   0.0000       0.554279        15.0827 
  91   0.0000       0.561378        15.2759 
  92   0.0000       0.565202        15.3799 
  93   0.0000       0.581786        15.8312 
  94   0.0000       0.584782        15.9127 
  95   0.0000       0.586270        15.9532 
  96   0.0000       0.631754        17.1909 
  97   0.0000       0.639182        17.3930 
  98   0.0000       0.649202        17.6657 
  99   0.0000       0.653272        17.7764 
 100   0.0000       0.669435        18.2163 
 101   0.0000       0.681598        18.5472 
 102   0.0000       0.689720        18.7682 
 103   0.0000       0.712011        19.3748 
 104   0.0000       0.720910        19.6170 
 105   0.0000       0.726091        19.7580 
 106   0.0000       0.728567        19.8253 
 107   0.0000       0.732194        19.9240 
 108   0.0000       0.790053        21.4984 
 109   0.0000       0.799649        21.7596 
 110   0.0000       0.810746        22.0615 
 111   0.0000       0.822060        22.3694 
 112   0.0000       0.843814        22.9614 
 113   0.0000       0.858335        23.3565 
 114   0.0000       0.884292        24.0628 
 115   0.0000       0.900373        24.5004 
 116   0.0000       0.915168        24.9030 
 117   0.0000       0.997321        27.1385 
 118   0.0000       1.010693        27.5024 
 119   0.0000       1.012449        27.5501 
 120   0.0000       1.024747        27.8848 
 121   0.0000       1.051189        28.6043 
 122   0.0000       1.056941        28.7608 
 123   0.0000       1.106609        30.1124 
 124   0.0000       1.180305        32.1177 
 125   0.0000       1.199943        32.6521 
 126   0.0000       1.229691        33.4616 
 127   0.0000       1.257333        34.2138 
 128   0.0000       1.290483        35.1158 
 129   0.0000       1.350967        36.7617 
 130   0.0000       1.486724        40.4558 
 131   0.0000       1.562085        42.5065 
 132   0.0000       1.566285        42.6208 
 133   0.0000       1.577647        42.9299 
 134   0.0000       1.592713        43.3399 
 135   0.0000       1.602871        43.6163 
 136   0.0000       1.691281        46.0221 
 137   0.0000       1.798808        48.9480 
 138   0.0000       1.829891        49.7939 
 139   0.0000       1.870442        50.8973 
 140   0.0000       1.875473        51.0342 
 141   0.0000       1.883222        51.2451 
 142   0.0000       1.892943        51.5096 
 143   0.0000       1.899549        51.6894 
 144   0.0000       1.900571        51.7172 
 145   0.0000       1.923662        52.3455 
 146   0.0000       1.951127        53.0929 
 147   0.0000       1.955165        53.2027 
 148   0.0000       1.960413        53.3455 
 149   0.0000       1.975501        53.7561 
 150   0.0000       1.998569        54.3838 
 151   0.0000       2.000611        54.4394 
 152   0.0000       2.010548        54.7098 
 153   0.0000       2.019327        54.9487 
 154   0.0000       2.024387        55.0864 
 155   0.0000       2.040526        55.5255 
 156   0.0000       2.044873        55.6438 
 157   0.0000       2.077508        56.5319 
 158   0.0000       2.085614        56.7524 
 159   0.0000       2.096645        57.0526 
 160   0.0000       2.103712        57.2449 
 161   0.0000       2.104738        57.2728 
 162   0.0000       2.106279        57.3148 
 163   0.0000       2.113454        57.5100 
 164   0.0000       2.150225        58.5106 
 165   0.0000       2.163025        58.8589 
 166   0.0000       2.174469        59.1703 
 167   0.0000       2.230057        60.6829 
 168   0.0000       2.231651        60.7263 
 169   0.0000       2.233008        60.7632 
 170   0.0000       2.234062        60.7919 
 171   0.0000       2.235394        60.8282 
 172   0.0000       2.240228        60.9597 
 173   0.0000       2.246419        61.1282 
 174   0.0000       2.258844        61.4663 
 175   0.0000       2.267235        61.6946 
 176   0.0000       2.272689        61.8430 
 177   0.0000       2.274421        61.8901 
 178   0.0000       2.317959        63.0749 
 179   0.0000       2.328210        63.3538 
 180   0.0000       2.332312        63.4654 
 181   0.0000       2.341642        63.7193 
 182   0.0000       2.350359        63.9565 
 183   0.0000       2.351759        63.9946 
 184   0.0000       2.353682        64.0469 
 185   0.0000       2.361419        64.2575 
 186   0.0000       2.364244        64.3344 
 187   0.0000       2.366242        64.3887 
 188   0.0000       2.374358        64.6096 
 189   0.0000       2.384764        64.8927 
 190   0.0000       2.390474        65.0481 
 191   0.0000       2.392031        65.0905 
 192   0.0000       2.396789        65.2199 
 193   0.0000       2.428081        66.0714 
 194   0.0000       2.453824        66.7720 
 195   0.0000       2.460261        66.9471 
 196   0.0000       2.466906        67.1279 
 197   0.0000       2.481706        67.5307 
 198   0.0000       2.484885        67.6172 
 199   0.0000       2.502762        68.1036 
 200   0.0000       2.509621        68.2903 
 201   0.0000       2.537929        69.0606 
 202   0.0000       2.611851        71.0721 
 203   0.0000       2.628282        71.5192 
 204   0.0000       2.646969        72.0277 
 205   0.0000       2.707852        73.6844 
 206   0.0000       2.716368        73.9161 
 207   0.0000       2.729920        74.2849 
 208   0.0000       2.768748        75.3415 
 209   0.0000       2.796320        76.0917 
 210   0.0000       2.954993        80.4094 
 211   0.0000       3.052244        83.0558 
 212   0.0000       3.110420        84.6388 
 213   0.0000       3.119319        84.8810 
 214   0.0000       3.199342        87.0585 
 215   0.0000       3.202942        87.1565 
 216   0.0000       3.208904        87.3187 
 217   0.0000       3.280850        89.2765 
 218   0.0000       3.393778        92.3494 
 219   0.0000       3.549188        96.5783 
 220   0.0000       3.564226        96.9875 
 221   0.0000       3.576812        97.3300 
 222   0.0000       3.751448       102.0821 
 223   0.0000       3.791816       103.1806 
 224   0.0000       3.894345       105.9705 
 225   0.0000       4.158396       113.1557 
 226   0.0000       4.173235       113.5595 
 227   0.0000       4.385943       119.3476 
 228   0.0000       4.441491       120.8591 
 229   0.0000       4.824424       131.2792 
 230   0.0000       4.831192       131.4634 
 231   0.0000       4.922887       133.9586 
 232   0.0000       4.929221       134.1309 
 233   0.0000       5.035305       137.0176 
 234   0.0000       5.075231       138.1041 
 235   0.0000       5.133030       139.6769 
 236   0.0000       5.289966       143.9473 
 237   0.0000       5.449979       148.3015 
 238   0.0000       5.488041       149.3372 
 239   0.0000       5.792902       157.6329 
 240   0.0000      11.015500       299.7470 
 241   0.0000      11.027636       300.0772 
 242   0.0000      11.031879       300.1927 
 243   0.0000      11.039019       300.3870 
 244   0.0000      11.107910       302.2616 
 245   0.0000      11.134416       302.9829 
 246   0.0000      11.145492       303.2843 
 247   0.0000      11.151151       303.4383 
 248   0.0000      11.208369       304.9952 
 249   0.0000      22.644541       616.1893 
 250   0.0000      24.953609       679.0222 
 251   0.0000      25.025817       680.9871 
 252   0.0000      25.105160       683.1461 
 253   0.0000      32.289518       878.6425 
 254   0.0000      35.419415       963.8113 
 255   0.0000      35.639629       969.8036 
 256   0.0000      35.666911       970.5460 
 257   0.0000      35.738487       972.4937 
 258   0.0000     123.511275      3360.9127 

                    ********************************
                    * MULLIKEN POPULATION ANALYSIS *
                    ********************************

-----------------------
MULLIKEN ATOMIC CHARGES
-----------------------
   0 C :   -0.232274
   1 N :   -0.298493
   2 H :    0.134882
   3 H :    0.175069
   4 H :    0.174733
   5 H :    0.270038
   6 H :    0.271559
   7 H :    0.258537
   8 Pb:    0.905795
   9 Cl:   -0.449436
  10 Cl:   -0.755014
  11 Cl:   -0.455397
Sum of atomic charges:   -0.0000000

--------------------------------
MULLIKEN REDUCED ORBITAL CHARGES
--------------------------------
  0 C s       :     3.259587  s :     3.259587
      pz      :     0.982775  p :     2.900497
      px      :     1.002945
      py      :     0.914777
      dz2     :     0.005789  d :     0.066134
      dxz     :     0.017852
      dyz     :     0.018194
      dx2y2   :     0.006133
      dxy     :     0.018167
      f0      :     0.000356  f :     0.006056
      f+1     :     0.000490
      f-1     :     0.000676
      f+2     :     0.000745
      f-2     :     0.002685
      f+3     :     0.000531
      f-3     :     0.000572
  1 N s       :     3.428748  s :     3.428748
      pz      :     1.277552  p :     3.817498
      px      :     1.272651
      py      :     1.267294
      dz2     :     0.005579  d :     0.049984
      dxz     :     0.013173
      dyz     :     0.012267
      dx2y2   :     0.006307
      dxy     :     0.012658
      f0      :     0.000133  f :     0.002264
      f+1     :     0.000178
      f-1     :     0.000211
      f+2     :     0.000231
      f-2     :     0.001159
      f+3     :     0.000168
      f-3     :     0.000184
  2 H s       :     0.843850  s :     0.843850
      pz      :     0.008191  p :     0.021268
      px      :     0.007670
      py      :     0.005406
  3 H s       :     0.802647  s :     0.802647
      pz      :     0.006705  p :     0.022284
      px      :     0.007628
      py      :     0.007951
  4 H s       :     0.802980  s :     0.802980
      pz      :     0.007045  p :     0.022287
      px      :     0.007191
      py      :     0.008052
  5 H s       :     0.697092  s :     0.697092
      pz      :     0.009438  p :     0.032869
      px      :     0.011893
      py      :     0.011538
  6 H s       :     0.695321  s :     0.695321
      pz      :     0.011505  p :     0.033120
      px      :     0.009861
      py      :     0.011754
  7 H s       :     0.692814  s :     0.692814
      pz      :     0.017935  p :     0.048649
      px      :     0.016672
      py      :     0.014042
  8 Pbs       :     3.942448  s :     3.942448
      pz      :     2.326078  p :     6.941443
      px      :     2.319100
      py      :     2.296266
      dz2     :     2.039334  d :    10.171597
      dxz     :     2.057174
      dyz     :     2.025727
      dx2y2   :     2.025882
      dxy     :     2.023480
      f0      :     0.005953  f :     0.038717
      f+1     :     0.007603
      f-1     :     0.004291
      f+2     :     0.005992
      f-2     :     0.007826
      f+3     :     0.003489
      f-3     :     0.003564
  9 Cls       :     5.959751  s :     5.959751
      pz      :     3.749399  p :    11.470986
      px      :     3.826609
      py      :     3.894978
      dz2     :     0.005320  d :     0.017919
      dxz     :     0.006078
      dyz     :     0.003948
      dx2y2   :     0.001113
      dxy     :     0.001459
      f0      :     0.000123  f :     0.000781
      f+1     :     0.000235
      f-1     :     0.000130
      f+2     :     0.000098
      f-2     :     0.000142
      f+3     :     0.000023
      f-3     :     0.000029
 10 Cls       :     5.959948  s :     5.959948
      pz      :     3.949513  p :    11.788036
      px      :     3.953464
      py      :     3.885059
      dz2     :     0.000697  d :     0.006723
      dxz     :     0.001162
      dyz     :     0.002045
      dx2y2   :     0.000968
      dxy     :     0.001852
      f0      :     0.000047  f :     0.000307
      f+1     :     0.000013
      f-1     :     0.000021
      f+2     :     0.000033
      f-2     :     0.000113
      f+3     :     0.000062
      f-3     :     0.000017
 11 Cls       :     5.959679  s :     5.959679
      pz      :     3.811796  p :    11.477184
      px      :     3.764973
      py      :     3.900415
      dz2     :     0.001973  d :     0.017763
      dxz     :     0.006748
      dyz     :     0.001500
      dx2y2   :     0.004155
      dxy     :     0.003386
      f0      :     0.000085  f :     0.000770
      f+1     :     0.000141
      f-1     :     0.000024
      f+2     :     0.000191
      f-2     :     0.000138
      f+3     :     0.000088
      f-3     :     0.000104


                     *******************************
                     * LOEWDIN POPULATION ANALYSIS *
                     *******************************

----------------------
LOEWDIN ATOMIC CHARGES
----------------------
   0 C :   -0.273792
   1 N :    0.097699
   2 H :    0.115237
   3 H :    0.134077
   4 H :    0.133805
   5 H :    0.196779
   6 H :    0.195559
   7 H :    0.112146
   8 Pb:    0.364680
   9 Cl:   -0.184843
  10 Cl:   -0.701755
  11 Cl:   -0.189592

-------------------------------
LOEWDIN REDUCED ORBITAL CHARGES
-------------------------------
  0 C s       :     2.857298  s :     2.857298
      pz      :     1.035606  p :     3.084868
      px      :     1.047975
      py      :     1.001287
      dz2     :     0.026106  d :     0.294754
      dxz     :     0.079454
      dyz     :     0.079726
      dx2y2   :     0.030922
      dxy     :     0.078545
      f0      :     0.005237  f :     0.036872
      f+1     :     0.003796
      f-1     :     0.005583
      f+2     :     0.004190
      f-2     :     0.007337
      f+3     :     0.004981
      f-3     :     0.005747
  1 N s       :     3.007147  s :     3.007147
      pz      :     1.246836  p :     3.722250
      px      :     1.242486
      py      :     1.232928
      dz2     :     0.017645  d :     0.163304
      dxz     :     0.040493
      dyz     :     0.042427
      dx2y2   :     0.019120
      dxy     :     0.043620
      f0      :     0.001540  f :     0.009600
      f+1     :     0.001121
      f-1     :     0.001391
      f+2     :     0.001050
      f-2     :     0.001721
      f+3     :     0.001285
      f-3     :     0.001492
  2 H s       :     0.822755  s :     0.822755
      pz      :     0.022892  p :     0.062007
      px      :     0.021767
      py      :     0.017349
  3 H s       :     0.802526  s :     0.802526
      pz      :     0.018863  p :     0.063397
      px      :     0.023031
      py      :     0.021503
  4 H s       :     0.802803  s :     0.802803
      pz      :     0.021387  p :     0.063392
      px      :     0.020256
      py      :     0.021750
  5 H s       :     0.706976  s :     0.706976
      pz      :     0.030704  p :     0.096245
      px      :     0.032962
      py      :     0.032579
  6 H s       :     0.706983  s :     0.706983
      pz      :     0.031960  p :     0.097458
      px      :     0.032258
      py      :     0.033240
  7 H s       :     0.721417  s :     0.721417
      pz      :     0.061777  p :     0.166436
      px      :     0.057078
      py      :     0.047581
  8 Pbs       :     3.824456  s :     3.824456
      pz      :     2.439157  p :     7.224829
      px      :     2.424672
      py      :     2.361001
      dz2     :     2.099060  d :    10.482144
      dxz     :     2.179460
      dyz     :     2.071018
      dx2y2   :     2.070396
      dxy     :     2.062209
      f0      :     0.014700  f :     0.103890
      f+1     :     0.021665
      f-1     :     0.011648
      f+2     :     0.016751
      f-2     :     0.021686
      f+3     :     0.007810
      f-3     :     0.009630
  9 Cls       :     5.781458  s :     5.781458
      pz      :     3.728296  p :    11.372013
      px      :     3.789556
      py      :     3.854161
      dz2     :     0.008620  d :     0.029849
      dxz     :     0.010569
      dyz     :     0.007498
      dx2y2   :     0.000922
      dxy     :     0.002240
      f0      :     0.000116  f :     0.001523
      f+1     :     0.000574
      f-1     :     0.000353
      f+2     :     0.000090
      f-2     :     0.000333
      f+3     :     0.000021
      f-3     :     0.000036
 10 Cls       :     5.930516  s :     5.930516
      pz      :     3.936984  p :    11.761732
      px      :     3.942341
      py      :     3.882407
      dz2     :     0.000751  d :     0.009001
      dxz     :     0.001459
      dyz     :     0.002964
      dx2y2   :     0.001139
      dxy     :     0.002687
      f0      :     0.000082  f :     0.000506
      f+1     :     0.000014
      f-1     :     0.000025
      f+2     :     0.000049
      f-2     :     0.000207
      f+3     :     0.000109
      f-3     :     0.000021
 11 Cls       :     5.781261  s :     5.781261
      pz      :     3.776557  p :    11.377034
      px      :     3.742023
      py      :     3.858453
      dz2     :     0.001838  d :     0.029778
      dxz     :     0.012839
      dyz     :     0.002340
      dx2y2   :     0.006853
      dxy     :     0.005908
      f0      :     0.000243  f :     0.001519
      f+1     :     0.000124
      f-1     :     0.000020
      f+2     :     0.000422
      f-2     :     0.000324
      f+3     :     0.000118
      f-3     :     0.000269


                      *****************************
                      * MAYER POPULATION ANALYSIS *
                      *****************************

  NA   - Mulliken gross atomic population
  ZA   - Total nuclear charge
  QA   - Mulliken gross atomic charge
  VA   - Mayer's total valence
  BVA  - Mayer's bonded valence
  FA   - Mayer's free valence

  ATOM       NA         ZA         QA         VA         BVA        FA
  0 C      6.2323     6.0000    -0.2323     3.8107     3.8107     0.0000
  1 N      7.2985     7.0000    -0.2985     3.2809     3.2809    -0.0000
  2 H      0.8651     1.0000     0.1349     0.9608     0.9608    -0.0000
  3 H      0.8249     1.0000     0.1751     0.9756     0.9756     0.0000
  4 H      0.8253     1.0000     0.1747     0.9754     0.9754    -0.0000
  5 H      0.7300     1.0000     0.2700     0.9365     0.9365    -0.0000
  6 H      0.7284     1.0000     0.2716     0.9353     0.9353     0.0000
  7 H      0.7415     1.0000     0.2585     1.0921     1.0921    -0.0000
  8 Pb    21.0942    22.0000     0.9058     1.8448     1.8448    -0.0000
  9 Cl    17.4494    17.0000    -0.4494     0.9475     0.9475    -0.0000
 10 Cl    17.7550    17.0000    -0.7550     0.4423     0.4423    -0.0000
 11 Cl    17.4554    17.0000    -0.4554     0.9375     0.9375    -0.0000

  Mayer bond orders larger than 0.1
B(  0-C ,  1-N ) :   0.8891 B(  0-C ,  2-H ) :   0.9652 B(  0-C ,  3-H ) :   0.9632 
B(  0-C ,  4-H ) :   0.9635 B(  1-N ,  5-H ) :   0.8968 B(  1-N ,  6-H ) :   0.8967 
B(  1-N ,  7-H ) :   0.6776 B(  7-H , 10-Cl) :   0.4113 B(  8-Pb,  9-Cl) :   0.9146 
B(  8-Pb, 11-Cl) :   0.9042 

-------
TIMINGS
-------

Total SCF time: 0 days 0 hours 4 min 59 sec 

Total time                  ....     299.688 sec
Sum of individual times     ....     282.399 sec  ( 94.2%)

Fock matrix formation       ....     276.170 sec  ( 92.2%)
  Coulomb formation         ....     212.091 sec  ( 76.8% of F)
  Split-RI-J                ....      19.257 sec  (  7.0% of F)
  Chain of spheres X        ....     209.175 sec  ( 75.7% of F)
  COS-X 1 center corr.      ....       0.000 sec  (  0.0% of F)
  XC integration            ....      64.117 sec  ( 23.2% of F)
    Basis function eval.    ....      31.427 sec  ( 49.0% of XC)
    Density eval.           ....      13.044 sec  ( 20.3% of XC)
    XC-Functional eval.     ....       4.072 sec  (  6.4% of XC)
    XC-Potential eval.      ....      14.314 sec  ( 22.3% of XC)
Diagonalization             ....       0.653 sec  (  0.2%)
Density matrix formation    ....       0.045 sec  (  0.0%)
Population analysis         ....       0.072 sec  (  0.0%)
Initial guess               ....       0.116 sec  (  0.0%)
Orbital Transformation      ....       0.000 sec  (  0.0%)
Orbital Orthonormalization  ....       0.113 sec  (  0.0%)
DIIS solution               ....       0.163 sec  (  0.1%)
SOSCF solution              ....       0.101 sec  (  0.0%)
Grid generation             ....       5.078 sec  (  1.7%)

------------------------------------------------------------------------------
                              ORCA MP2 CALCULATION
------------------------------------------------------------------------------


----------------------
RI-MP2 ENERGY+GRADIENT
----------------------
Dimension of the basis                    ...  259
Memory devoted to MP2                     ... 1000 MB   
Data format for buffers                   ... DOUBLE
Compression type for matrix containers    ... UNCOMPRESSED
Overall scaling of the MP2 energy         ...   2.700e-01 Eh
Calculating two index integrals           ... done (    0.012 sec)
Cholesky decomposition of the V-matrix    ... done
Cholesky decomposition of V**-1           ... done (    0.030 sec)

-----------------
RI-TRANSFORMATION (AUX index driven)
-----------------

Dimension of the orbital-basis         ... 259
Dimension of the aux-basis             ... 493
Transformation of internal MOs         ...    0-  45
Transformation of internal/external MOs...    0-  45 to   46- 258
Number Format for Storage              ... Double (8 Byte)
Integral mode                          ... Direct

First Phase: integral generation and transformation of MO indices
  Aux angular momentum 0               ... done (    0.389 sec)
  Aux angular momentum 1               ... done (    0.321 sec)
  Aux angular momentum 2               ... done (    0.390 sec)
  Aux angular momentum 3               ... done (    0.219 sec)
  Aux angular momentum 4               ... done (    0.198 sec)
Closing buffer VIJ ( 0.00 GB; CompressionRatio= 1.95)
Closing buffer VIA ( 0.04 GB; CompressionRatio= 1.00)
  Phase 1 completed in     1.620 sec
Second Phase: sorting and transformation of aux index

IJ-Transformation
Memory available                       ... 990 MB 
Max. # MO pairs treated in a batch     ... 46    
# of internal orbitals                 ... 46
# batches for internal orbitals        ... 1
Closing buffer IJV ( 0.00 GB; CompressionRatio= 1.00)
(ij|v) transformation done in     0.141 sec

IA-Transformation
Memory available                       ... 990 MB 
Max. # MO pairs treated in a batch     ... 46    
# of internal orbitals                 ... 46
# batches for internal orbitals        ... 1
Closing buffer IAV ( 0.04 GB; CompressionRatio= 1.00)
(ia|v) transformation done in     0.370 sec

  Phase 2 completed in     0.529 sec
RI-Integral transformation completed in     2.149 sec
Opening buffers                              ... done

Starting loop over batches of integrals:

Operator 0  - window                       ... (  0- 45)x( 46-258)
Operator 0  - Memory available             ...  1000 MB
Operator 0  - Memory needed per MO         ...   1.6 MB
Operator 0  - Number of orbitals per batch ... 46
Operator 0  - Number of batches            ... 1

OPERATOR  0   PASS   0:  MOs     0 ...   45
  Reading integrals       ... ok
  Internal MO   2
  Internal MO   5
  Internal MO   8
  Internal MO  11
  Internal MO  14
  Internal MO  17
  Internal MO  20
  Internal MO  23
  Internal MO  26
  Internal MO  29
  Internal MO  32
  Internal MO  35
  Internal MO  38
  Internal MO  41
  Internal MO  44
Closing buffer GIPV ( 0.04 GB; CompressionRatio= 1.00)
Time spent in pair loops =    44.903 sec

-----------------------------------------------
 RI-MP2 CORRELATION ENERGY:     -0.573325547 Eh
-----------------------------------------------


---------------------
MP2 DENSITY FORMATION
---------------------

Completing the external part of the density      ... done
Storing the unrelaxed density                    ... done

Calculating the xc-kernel                        ... done
Calculating G(D)                                 ... done
Completing the Lagrangian                        ... done
Solving the Z-vector equations                   ... 

------------------------------------------------------------------------------
                           ORCA CP-SCF CALCULATION
------------------------------------------------------------------------------

Input orbitals are from        ... PbMACl3_mp2_md2_6.orca.gbw
Input Perturbation             ... PbMACl3_mp2_md2_6.orca.pin.tmp
Wavefunction output            ... PbMACl3_mp2_md2_6.orca.pout.tmp
Perturbation mode              ... Real perturbation
Solver                         ... DIIS
   MaxDIIS                     ... 20
   Levelshift                  ...    3.000e-01 Eh
Max. number of iterations      ... 128
Convergence tolerance          ... 1.000e-08
Integral handling              ... Direct
COSX GridX                     ... 1
Number of perturbations        ... 1
Number of operators            ... 1
Orbital ranges used for CP-SCF:
 Operator 0:  Orbitals   0... 45  to  46...258
DFT calculation                         ... on
Exchange functional (SCF)               ... B88
Exchange functional (CP-SCF)            ... B88
   X-Alpha parameter    XAlpha (SCF)    ...  0.666667
   X-Alpha parameter    XAlpha (CP-SCF) ...  0.666667
   Becke's b parameter  XBeta (SCF)     ...  0.004200
   Becke's b parameter  XBeta (CP-SCF)  ...  0.004200
Correlation functional (SCF)            ... LYP
Correlation functional (CP-SCF)         ... LYP
 LDA part of GGA corr.  LDAOpt (SCF)    ... VWN-3
 LDA part of GGA corr.  LDAOpt (CP-SCF) ... VWN-3
Hybrid DFT                              ... on
   Exchange mixing (SCF)                ...  0.530
   Exchange mixing (CP-SCF)             ...  0.530
   GGA exch. scaling(SCF)               ...  0.470
   GGA exch. scaling (CP-SCF)           ...  0.470
   GGA corr. scaling (SCF)              ...  0.730
   GGA corr. scaling (CP-SCF)           ...  0.730
The RIJCOSX approximation is active
Variables per vector in CP-SCF ... 9798
Number of vectors sought       ... 1
Calculating the xc-kernel      ... done

Solving the CP-SCF equations by a DIIS algorithm

-----------------
CP-SCF ITERATIONS
-----------------
  Iteration   0: MaxR=  0.088033342
  Iteration   1: MaxR=  0.038929034
  Iteration   2: MaxR=  0.011201920
  Iteration   3: MaxR=  0.005833047
  Iteration   4: MaxR=  0.003289195
  Iteration   5: MaxR=  0.001547720
  Iteration   6: MaxR=  0.000626547
  Iteration   7: MaxR=  0.000205487
  Iteration   8: MaxR=  0.000114240
  Iteration   9: MaxR=  0.000068359
  Iteration  10: MaxR=  0.000037389
  Iteration  11: MaxR=  0.000015665
  Iteration  12: MaxR=  0.000006424
  Iteration  13: MaxR=  0.000002954
  Iteration  14: MaxR=  0.000001213
  Iteration  15: MaxR=  0.000000608
  Iteration  16: MaxR=  0.000000354
  Iteration  17: MaxR=  0.000000202
  Iteration  18: MaxR=  0.000000087
  Iteration  19: MaxR=  0.000000028
  Iteration  20: MaxR=  0.000000011
  Iteration  21: MaxR=  0.000000005
                              *** THE CP-SCF HAS CONVERGED *** 
done
Finalizing the relaxed density                   ... done
Transforming P to the AO basis                   ... done
Storing the relaxed density                      ... done

------------------------------------
ENERGY WEIGHTED DENSITY FINALIZATION
------------------------------------

Gathering the parts of the W-matrix              ... done
Forming the Z-density                            ... done
Transforming Z to the AO basis                   ... done
Calculating G(Z)                                 ... done
Finalizing the W-matrix                          ... done
Transforming W to the AO basis and storing       ... done
Entering the RIJONX and RIJCOSX sections
Starting the three-index derivative integrals:
Operator 0  - Memory available             ...  1000 MB
Operator 0  - Memory needed per MO         ...   1.0 MB
Operator 0  - Number of orbitals per batch ... 46
Operator 0  - Number of batches            ... 1

OPERATOR  0   PASS   0:  MOs     0 ...   45

----------------------------------
MP2 DERIVATIVE INTEGRAL GENERATION
----------------------------------


Input Correlated Electron Density   ... PbMACl3_mp2_md2_6.orca.pmp2re
Input Energy Weighted Density       ... PbMACl3_mp2_md2_6.orca.wmp2.tmp
Input SCF Electron Density          ... PbMACl3_mp2_md2_6.orca.scfp.tmp

One-Electron Terms    ...
  ECP gradient                                           ... One-Electron Terms done

-----------------------------------------------------------
MP2 COSX Grid Generation
-----------------------------------------------------------

General Integration Accuracy     IntAcc      ...  4.340
Radial Grid Type                 RadialGrid  ... Gauss-Chebyshev
Angular Grid (max. acc.)         AngularGrid ... Lebedev-302
Angular grid pruning method      GridPruning ... 3 (G Style)
Weight generation scheme         WeightScheme... Becke
Basis function cutoff            BFCut       ...    1.0000e-11
Integration weight cutoff        WCut        ...    1.0000e-14
Grids for H and He will be reduced by one unit

# of grid points (after initial pruning)     ...  57718 (   0.0 sec)
# of grid points (after weights+screening)   ...  54930 (   0.1 sec)
nearest neighbour list constructed           ...    0.0 sec
Grid point re-assignment to atoms done       ...    0.0 sec
Grid point division into batches done        ...    0.2 sec
Reduced shell lists constructed in    1.6 sec

Total number of grid points                  ...    54930
Total number of batches                      ...      863
Average number of points per batch           ...       63
Average number of grid points per atom       ...     4578
Average number of shells per batch           ...    50.30 (49.80%)
Average number of basis functions per batch  ...   129.27 (49.91%)
Average number of large shells per batch     ...    37.16 (73.88%)
Average number of large basis fcns per batch ...    94.71 (73.27%)
Maximum spatial batch extension              ...  31.21, 31.21, 34.50 au
Average spatial batch extension              ...   3.20,  3.15,  3.18 au

Overlap Fitting                  UseSFitting ... on
Two electron COSX terms .... 
Integration Timings:
Total Time                  =    78.1 sec
Basis fcn evaluation        =     0.6 sec
Density evaluation          =     1.3 sec
Integral evaluation         =    74.0 sec
K(P) evaluation             =     0.8 sec
                          .... COSX two electron terms done
COSX two-electron contribution to the gradient
     0:    -0.014429    -0.035790    -0.016880
     1:     0.039958     0.118585     0.040921
     2:     0.098162    -0.075285     0.105185
     3:    -0.105745     0.100409     0.094644
     4:     0.100989     0.101804    -0.098401
     5:    -0.122457    -0.128808     0.102437
     6:     0.108645    -0.130690    -0.117110
     7:    -0.082166     0.029743    -0.087065
     8:     0.023558    -0.047606     0.021472
     9:     0.047541     0.024121    -0.076924
    10:    -0.020717     0.024212    -0.021885
    11:    -0.073803     0.019498     0.052930
Exchange-correlation gradient    ... done
Dispersion correction            ... 
Entering the calculation of the dispersion correction...

Checking the input atom types...

Done
done

                *********************************************
                * UNRELAXED MP2 DENSITY POPULATION ANALYSIS *
                *********************************************

------------------------------------------------------------------------------
                           ORCA POPULATION ANALYSIS
------------------------------------------------------------------------------
Input electron density              ... PbMACl3_mp2_md2_6.orca.pmp2ur
BaseName (.gbw .S,...)              ... PbMACl3_mp2_md2_6.orca

                    ********************************
                    * MULLIKEN POPULATION ANALYSIS *
                    ********************************

-----------------------
MULLIKEN ATOMIC CHARGES
-----------------------
   0 C :   -0.236877
   1 N :   -0.297548
   2 H :    0.135782
   3 H :    0.176028
   4 H :    0.175700
   5 H :    0.269728
   6 H :    0.271297
   7 H :    0.256514
   8 Pb:    0.885860
   9 Cl:   -0.439239
  10 Cl:   -0.751829
  11 Cl:   -0.445417
Sum of atomic charges:   -0.0000000

--------------------------------
MULLIKEN REDUCED ORBITAL CHARGES
--------------------------------
  0 C s       :     3.258362  s :     3.258362
      pz      :     0.981435  p :     2.896655
      px      :     1.001425
      py      :     0.913795
      dz2     :     0.007800  d :     0.074673
      dxz     :     0.019407
      dyz     :     0.019664
      dx2y2   :     0.008124
      dxy     :     0.019677
      f0      :     0.000511  f :     0.007188
      f+1     :     0.000664
      f-1     :     0.000847
      f+2     :     0.000926
      f-2     :     0.002806
      f+3     :     0.000695
      f-3     :     0.000738
  1 N s       :     3.426462  s :     3.426462
      pz      :     1.274087  p :     3.807256
      px      :     1.269293
      py      :     1.263876
      dz2     :     0.007805  d :     0.060538
      dxz     :     0.015217
      dyz     :     0.014307
      dx2y2   :     0.008531
      dxy     :     0.014678
      f0      :     0.000275  f :     0.003292
      f+1     :     0.000328
      f-1     :     0.000362
      f+2     :     0.000385
      f-2     :     0.001297
      f+3     :     0.000314
      f-3     :     0.000332
  2 H s       :     0.841904  s :     0.841904
      pz      :     0.008524  p :     0.022314
      px      :     0.008008
      py      :     0.005782
  3 H s       :     0.800729  s :     0.800729
      pz      :     0.007036  p :     0.023243
      px      :     0.007951
      py      :     0.008256
  4 H s       :     0.801053  s :     0.801053
      pz      :     0.007374  p :     0.023246
      px      :     0.007517
      py      :     0.008356
  5 H s       :     0.696747  s :     0.696747
      pz      :     0.009664  p :     0.033525
      px      :     0.012085
      py      :     0.011776
  6 H s       :     0.694931  s :     0.694931
      pz      :     0.011703  p :     0.033772
      px      :     0.010080
      py      :     0.011988
  7 H s       :     0.694264  s :     0.694264
      pz      :     0.018097  p :     0.049221
      px      :     0.016848
      py      :     0.014276
  8 Pbs       :     3.922521  s :     3.922521
      pz      :     2.336895  p :     6.975323
      px      :     2.330088
      py      :     2.308339
      dz2     :     2.033669  d :    10.142194
      dxz     :     2.050957
      dyz     :     2.019915
      dx2y2   :     2.020009
      dxy     :     2.017643
      f0      :     0.011031  f :     0.074102
      f+1     :     0.012698
      f-1     :     0.009330
      f+2     :     0.011074
      f-2     :     0.012826
      f+3     :     0.008552
      f-3     :     0.008591
  9 Cls       :     5.954789  s :     5.954789
      pz      :     3.734068  p :    11.425129
      px      :     3.811254
      py      :     3.879807
      dz2     :     0.012977  d :     0.055881
      dxz     :     0.013660
      dyz     :     0.011597
      dx2y2   :     0.008657
      dxy     :     0.008990
      f0      :     0.000516  f :     0.003440
      f+1     :     0.000619
      f-1     :     0.000516
      f+2     :     0.000480
      f-2     :     0.000522
      f+3     :     0.000391
      f-3     :     0.000397
 10 Cls       :     5.955705  s :     5.955705
      pz      :     3.936197  p :    11.748023
      px      :     3.940183
      py      :     3.871643
      dz2     :     0.008384  d :     0.045176
      dxz     :     0.008838
      dyz     :     0.009752
      dx2y2   :     0.008650
      dxy     :     0.009552
      f0      :     0.000419  f :     0.002926
      f+1     :     0.000385
      f-1     :     0.000395
      f+2     :     0.000408
      f-2     :     0.000491
      f+3     :     0.000436
      f-3     :     0.000391
 11 Cls       :     5.954735  s :     5.954735
      pz      :     3.796492  p :    11.431517
      px      :     3.749714
      py      :     3.885311
      dz2     :     0.009566  d :     0.055734
      dxz     :     0.014316
      dyz     :     0.009038
      dx2y2   :     0.011777
      dxy     :     0.011037
      f0      :     0.000459  f :     0.003430
      f+1     :     0.000529
      f-1     :     0.000394
      f+2     :     0.000570
      f-2     :     0.000518
      f+3     :     0.000473
      f-3     :     0.000487


                     *******************************
                     * LOEWDIN POPULATION ANALYSIS *
                     *******************************

----------------------
LOEWDIN ATOMIC CHARGES
----------------------
   0 C :   -0.276911
   1 N :    0.096761
   2 H :    0.115905
   3 H :    0.134787
   4 H :    0.134518
   5 H :    0.196510
   6 H :    0.195326
   7 H :    0.111355
   8 Pb:    0.347148
   9 Cl:   -0.175900
  10 Cl:   -0.698639
  11 Cl:   -0.180860

-------------------------------
LOEWDIN REDUCED ORBITAL CHARGES
-------------------------------
  0 C s       :     2.856700  s :     2.856700
      pz      :     1.033298  p :     3.077976
      px      :     1.045572
      py      :     0.999106
      dz2     :     0.027897  d :     0.303616
      dxz     :     0.081250
      dyz     :     0.081481
      dx2y2   :     0.032672
      dxy     :     0.080316
      f0      :     0.005461  f :     0.038619
      f+1     :     0.004012
      f-1     :     0.005793
      f+2     :     0.004402
      f-2     :     0.007789
      f+3     :     0.005205
      f-3     :     0.005957
  1 N s       :     3.006558  s :     3.006558
      pz      :     1.243229  p :     3.711415
      px      :     1.238946
      py      :     1.229241
      dz2     :     0.019609  d :     0.174350
      dxz     :     0.042852
      dyz     :     0.044824
      dx2y2   :     0.021081
      dxy     :     0.045984
      f0      :     0.001716  f :     0.010916
      f+1     :     0.001293
      f-1     :     0.001561
      f+2     :     0.001221
      f-2     :     0.002000
      f+3     :     0.001463
      f-3     :     0.001662
  2 H s       :     0.820195  s :     0.820195
      pz      :     0.023555  p :     0.063900
      px      :     0.022398
      py      :     0.017947
  3 H s       :     0.800066  s :     0.800066
      pz      :     0.019430  p :     0.065147
      px      :     0.023643
      py      :     0.022074
  4 H s       :     0.800340  s :     0.800340
      pz      :     0.021976  p :     0.065142
      px      :     0.020841
      py      :     0.022324
  5 H s       :     0.705773  s :     0.705773
      pz      :     0.031156  p :     0.097717
      px      :     0.033420
      py      :     0.033142
  6 H s       :     0.705757  s :     0.705757
      pz      :     0.032398  p :     0.098917
      px      :     0.032721
      py      :     0.033798
  7 H s       :     0.721186  s :     0.721186
      pz      :     0.062132  p :     0.167458
      px      :     0.057434
      py      :     0.047893
  8 Pbs       :     3.805866  s :     3.805866
      pz      :     2.449124  p :     7.256624
      px      :     2.434876
      py      :     2.372623
      dz2     :     2.093143  d :    10.451121
      dxz     :     2.172300
      dyz     :     2.065098
      dx2y2   :     2.064297
      dxy     :     2.056283
      f0      :     0.019756  f :     0.139241
      f+1     :     0.026799
      f-1     :     0.016677
      f+2     :     0.021863
      f-2     :     0.026629
      f+3     :     0.012870
      f-3     :     0.014646
  9 Cls       :     5.776737  s :     5.776737
      pz      :     3.713410  p :    11.327107
      px      :     3.774480
      py      :     3.839217
      dz2     :     0.016273  d :     0.067827
      dxz     :     0.018215
      dyz     :     0.015130
      dx2y2   :     0.008446
      dxy     :     0.009764
      f0      :     0.000514  f :     0.004229
      f+1     :     0.000974
      f-1     :     0.000748
      f+2     :     0.000477
      f-2     :     0.000722
      f+3     :     0.000389
      f-3     :     0.000405
 10 Cls       :     5.926084  s :     5.926084
      pz      :     3.923719  p :    11.721859
      px      :     3.929102
      py      :     3.869038
      dz2     :     0.008467  d :     0.047557
      dxz     :     0.009162
      dyz     :     0.010674
      dx2y2   :     0.008864
      dxy     :     0.010391
      f0      :     0.000456  f :     0.003139
      f+1     :     0.000387
      f-1     :     0.000401
      f+2     :     0.000425
      f-2     :     0.000589
      f+3     :     0.000485
      f-3     :     0.000396
 11 Cls       :     5.776552  s :     5.776552
      pz      :     3.761561  p :    11.332322
      px      :     3.727193
      py      :     3.843567
      dz2     :     0.009386  d :     0.067761
      dxz     :     0.020490
      dyz     :     0.009865
      dx2y2   :     0.014486
      dxy     :     0.013533
      f0      :     0.000623  f :     0.004225
      f+1     :     0.000518
      f-1     :     0.000390
      f+2     :     0.000813
      f-2     :     0.000713
      f+3     :     0.000508
      f-3     :     0.000659


                      *****************************
                      * MAYER POPULATION ANALYSIS *
                      *****************************

  NA   - Mulliken gross atomic population
  ZA   - Total nuclear charge
  QA   - Mulliken gross atomic charge
  VA   - Mayer's total valence
  BVA  - Mayer's bonded valence
  FA   - Mayer's free valence

  ATOM       NA         ZA         QA         VA         BVA        FA
  0 C      6.2369     6.0000    -0.2369     3.8566     3.7432     0.1134
  1 N      7.2975     7.0000    -0.2975     3.3553     3.2140     0.1413
  2 H      0.8642     1.0000     0.1358     0.9640     0.9447     0.0193
  3 H      0.8240     1.0000     0.1760     0.9780     0.9599     0.0180
  4 H      0.8243     1.0000     0.1757     0.9778     0.9598     0.0180
  5 H      0.7303     1.0000     0.2697     0.9390     0.9186     0.0204
  6 H      0.7287     1.0000     0.2713     0.9377     0.9176     0.0201
  7 H      0.7435     1.0000     0.2565     1.0947     1.0725     0.0222
  8 Pb    21.1141    22.0000     0.8859     2.1564     1.7815     0.3749
  9 Cl    17.4392    17.0000    -0.4392     1.1860     0.9140     0.2720
 10 Cl    17.7518    17.0000    -0.7518     0.6811     0.4321     0.2490
 11 Cl    17.4454    17.0000    -0.4454     1.1759     0.9045     0.2713

  Mayer bond orders larger than 0.1
B(  0-C ,  1-N ) :   0.8678 B(  0-C ,  2-H ) :   0.9498 B(  0-C ,  3-H ) :   0.9483 
B(  0-C ,  4-H ) :   0.9487 B(  1-N ,  5-H ) :   0.8802 B(  1-N ,  6-H ) :   0.8803 
B(  1-N ,  7-H ) :   0.6659 B(  7-H , 10-Cl) :   0.4035 B(  8-Pb,  9-Cl) :   0.8829 
B(  8-Pb, 11-Cl) :   0.8730 


                *******************************************
                * RELAXED MP2 DENSITY POPULATION ANALYSIS *
                *******************************************

------------------------------------------------------------------------------
                           ORCA POPULATION ANALYSIS
------------------------------------------------------------------------------
Input electron density              ... PbMACl3_mp2_md2_6.orca.pmp2re
BaseName (.gbw .S,...)              ... PbMACl3_mp2_md2_6.orca

                    ********************************
                    * MULLIKEN POPULATION ANALYSIS *
                    ********************************

-----------------------
MULLIKEN ATOMIC CHARGES
-----------------------
   0 C :   -0.254553
   1 N :   -0.293647
   2 H :    0.139350
   3 H :    0.178661
   4 H :    0.178322
   5 H :    0.267953
   6 H :    0.269400
   7 H :    0.248413
   8 Pb:    0.822380
   9 Cl:   -0.407375
  10 Cl:   -0.734864
  11 Cl:   -0.414040
Sum of atomic charges:   -0.0000000

--------------------------------
MULLIKEN REDUCED ORBITAL CHARGES
--------------------------------
  0 C s       :     3.260622  s :     3.260622
      pz      :     0.988322  p :     2.916516
      px      :     1.007986
      py      :     0.920208
      dz2     :     0.007949  d :     0.070394
      dxz     :     0.017760
      dyz     :     0.018191
      dx2y2   :     0.008279
      dxy     :     0.018214
      f0      :     0.000490  f :     0.007021
      f+1     :     0.000655
      f-1     :     0.000834
      f+2     :     0.000917
      f-2     :     0.002726
      f+3     :     0.000677
      f-3     :     0.000723
  1 N s       :     3.426409  s :     3.426409
      pz      :     1.273435  p :     3.804975
      px      :     1.268965
      py      :     1.262575
      dz2     :     0.007948  d :     0.059024
      dxz     :     0.014649
      dyz     :     0.013703
      dx2y2   :     0.008658
      dxy     :     0.014065
      f0      :     0.000271  f :     0.003239
      f+1     :     0.000327
      f-1     :     0.000362
      f+2     :     0.000385
      f-2     :     0.001253
      f+3     :     0.000309
      f-3     :     0.000332
  2 H s       :     0.838674  s :     0.838674
      pz      :     0.008348  p :     0.021976
      px      :     0.007864
      py      :     0.005764
  3 H s       :     0.798499  s :     0.798499
      pz      :     0.006933  p :     0.022840
      px      :     0.007810
      py      :     0.008097
  4 H s       :     0.798834  s :     0.798834
      pz      :     0.007264  p :     0.022844
      px      :     0.007389
      py      :     0.008191
  5 H s       :     0.698906  s :     0.698906
      pz      :     0.009606  p :     0.033141
      px      :     0.011873
      py      :     0.011662
  6 H s       :     0.697215  s :     0.697215
      pz      :     0.011509  p :     0.033385
      px      :     0.010010
      py      :     0.011866
  7 H s       :     0.702854  s :     0.702854
      pz      :     0.017862  p :     0.048733
      px      :     0.016645
      py      :     0.014226
  8 Pbs       :     3.932224  s :     3.932224
      pz      :     2.357170  p :     7.035960
      px      :     2.350386
      py      :     2.328404
      dz2     :     2.033216  d :    10.137294
      dxz     :     2.048231
      dyz     :     2.019222
      dx2y2   :     2.019500
      dxy     :     2.017127
      f0      :     0.010716  f :     0.072142
      f+1     :     0.012312
      f-1     :     0.009129
      f+2     :     0.010805
      f-2     :     0.012349
      f+3     :     0.008407
      f-3     :     0.008425
  9 Cls       :     5.956376  s :     5.956376
      pz      :     3.724267  p :    11.392157
      px      :     3.799306
      py      :     3.868585
      dz2     :     0.012848  d :     0.055397
      dxz     :     0.013351
      dyz     :     0.011627
      dx2y2   :     0.008611
      dxy     :     0.008960
      f0      :     0.000519  f :     0.003445
      f+1     :     0.000616
      f-1     :     0.000517
      f+2     :     0.000481
      f-2     :     0.000522
      f+3     :     0.000392
      f-3     :     0.000397
 10 Cls       :     5.956209  s :     5.956209
      pz      :     3.931699  p :    11.730497
      px      :     3.936025
      py      :     3.862772
      dz2     :     0.008374  d :     0.045217
      dxz     :     0.008855
      dyz     :     0.009777
      dx2y2   :     0.008634
      dxy     :     0.009577
      f0      :     0.000422  f :     0.002941
      f+1     :     0.000386
      f-1     :     0.000396
      f+2     :     0.000409
      f-2     :     0.000497
      f+3     :     0.000439
      f-3     :     0.000392
 11 Cls       :     5.956270  s :     5.956270
      pz      :     3.785086  p :    11.399068
      px      :     3.739813
      py      :     3.874170
      dz2     :     0.009537  d :     0.055268
      dxz     :     0.014003
      dyz     :     0.009020
      dx2y2   :     0.011645
      dxy     :     0.011063
      f0      :     0.000459  f :     0.003435
      f+1     :     0.000532
      f-1     :     0.000395
      f+2     :     0.000569
      f-2     :     0.000519
      f+3     :     0.000474
      f-3     :     0.000489


                     *******************************
                     * LOEWDIN POPULATION ANALYSIS *
                     *******************************

----------------------
LOEWDIN ATOMIC CHARGES
----------------------
   0 C :   -0.287197
   1 N :    0.093023
   2 H :    0.117866
   3 H :    0.136339
   4 H :    0.136069
   5 H :    0.196664
   6 H :    0.195393
   7 H :    0.108157
   8 Pb:    0.298864
   9 Cl:   -0.152043
  10 Cl:   -0.685665
  11 Cl:   -0.157469

-------------------------------
LOEWDIN REDUCED ORBITAL CHARGES
-------------------------------
  0 C s       :     2.858205  s :     2.858205
      pz      :     1.037933  p :     3.091623
      px      :     1.050045
      py      :     1.003645
      dz2     :     0.028053  d :     0.299007
      dxz     :     0.079738
      dyz     :     0.079755
      dx2y2   :     0.032806
      dxy     :     0.078656
      f0      :     0.005432  f :     0.038361
      f+1     :     0.003992
      f-1     :     0.005784
      f+2     :     0.004365
      f-2     :     0.007677
      f+3     :     0.005159
      f-3     :     0.005954
  1 N s       :     3.008701  s :     3.008701
      pz      :     1.244021  p :     3.713221
      px      :     1.240024
      py      :     1.229177
      dz2     :     0.019849  d :     0.174067
      dxz     :     0.042667
      dyz     :     0.044565
      dx2y2   :     0.021310
      dxy     :     0.045676
      f0      :     0.001730  f :     0.010988
      f+1     :     0.001300
      f-1     :     0.001572
      f+2     :     0.001223
      f-2     :     0.002019
      f+3     :     0.001469
      f-3     :     0.001675
  2 H s       :     0.818060  s :     0.818060
      pz      :     0.023560  p :     0.064074
      px      :     0.022424
      py      :     0.018091
  3 H s       :     0.798494  s :     0.798494
      pz      :     0.019453  p :     0.065168
      px      :     0.023658
      py      :     0.022057
  4 H s       :     0.798770  s :     0.798770
      pz      :     0.022018  p :     0.065161
      px      :     0.020841
      py      :     0.022302
  5 H s       :     0.705721  s :     0.705721
      pz      :     0.031204  p :     0.097615
      px      :     0.033215
      py      :     0.033196
  6 H s       :     0.705821  s :     0.705821
      pz      :     0.032200  p :     0.098786
      px      :     0.032752
      py      :     0.033833
  7 H s       :     0.724359  s :     0.724359
      pz      :     0.062123  p :     0.167485
      px      :     0.057432
      py      :     0.047929
  8 Pbs       :     3.814632  s :     3.814632
      pz      :     2.465231  p :     7.306407
      px      :     2.451227
      py      :     2.389949
      dz2     :     2.092077  d :    10.443857
      dxz     :     2.169009
      dyz     :     2.064049
      dx2y2   :     2.063331
      dxy     :     2.055391
      f0      :     0.019270  f :     0.136241
      f+1     :     0.026076
      f-1     :     0.016448
      f+2     :     0.021345
      f-2     :     0.026012
      f+3     :     0.012642
      f-3     :     0.014448
  9 Cls       :     5.780141  s :     5.780141
      pz      :     3.705824  p :    11.299317
      px      :     3.764079
      py      :     3.829413
      dz2     :     0.016411  d :     0.068299
      dxz     :     0.018293
      dyz     :     0.015342
      dx2y2   :     0.008443
      dxy     :     0.009809
      f0      :     0.000522  f :     0.004286
      f+1     :     0.000993
      f-1     :     0.000758
      f+2     :     0.000483
      f-2     :     0.000733
      f+3     :     0.000390
      f-3     :     0.000407
 10 Cls       :     5.927170  s :     5.927170
      pz      :     3.920126  p :    11.707615
      px      :     3.925824
      py      :     3.861666
      dz2     :     0.008462  d :     0.047722
      dxz     :     0.009195
      dyz     :     0.010745
      dx2y2   :     0.008864
      dxy     :     0.010456
      f0      :     0.000458  f :     0.003157
      f+1     :     0.000388
      f-1     :     0.000402
      f+2     :     0.000427
      f-2     :     0.000595
      f+3     :     0.000489
      f-3     :     0.000397
 11 Cls       :     5.779910  s :     5.779910
      pz      :     3.751764  p :    11.305038
      px      :     3.719463
      py      :     3.833811
      dz2     :     0.009424  d :     0.068239
      dxz     :     0.020620
      dyz     :     0.009922
      dx2y2   :     0.014573
      dxy     :     0.013700
      f0      :     0.000630  f :     0.004282
      f+1     :     0.000527
      f-1     :     0.000392
      f+2     :     0.000828
      f-2     :     0.000724
      f+3     :     0.000515
      f-3     :     0.000666


                      *****************************
                      * MAYER POPULATION ANALYSIS *
                      *****************************

  NA   - Mulliken gross atomic population
  ZA   - Total nuclear charge
  QA   - Mulliken gross atomic charge
  VA   - Mayer's total valence
  BVA  - Mayer's bonded valence
  FA   - Mayer's free valence

  ATOM       NA         ZA         QA         VA         BVA        FA
  0 C      6.2546     6.0000    -0.2546     3.8573     3.7442     0.1131
  1 N      7.2936     7.0000    -0.2936     3.3595     3.2186     0.1409
  2 H      0.8606     1.0000     0.1394     0.9637     0.9445     0.0192
  3 H      0.8213     1.0000     0.1787     0.9784     0.9605     0.0180
  4 H      0.8217     1.0000     0.1783     0.9782     0.9603     0.0179
  5 H      0.7320     1.0000     0.2680     0.9424     0.9221     0.0202
  6 H      0.7306     1.0000     0.2694     0.9410     0.9211     0.0199
  7 H      0.7516     1.0000     0.2484     1.1005     1.0785     0.0220
  8 Pb    21.1776    22.0000     0.8224     2.2503     1.8830     0.3674
  9 Cl    17.4074    17.0000    -0.4074     1.2405     0.9716     0.2689
 10 Cl    17.7349    17.0000    -0.7349     0.7098     0.4621     0.2477
 11 Cl    17.4140    17.0000    -0.4140     1.2296     0.9613     0.2683

  Mayer bond orders larger than 0.1
B(  0-C ,  1-N ) :   0.8765 B(  0-C ,  2-H ) :   0.9466 B(  0-C ,  3-H ) :   0.9456 
B(  0-C ,  4-H ) :   0.9460 B(  1-N ,  5-H ) :   0.8779 B(  1-N ,  6-H ) :   0.8783 
B(  1-N ,  7-H ) :   0.6608 B(  7-H , 10-Cl) :   0.4141 B(  8-Pb,  9-Cl) :   0.9314 
B(  8-Pb, 11-Cl) :   0.9206 


-------
TIMINGS
-------

Total time                :  542.941 sec
Integral trafo            :    2.159 sec (  0.4%)
I/O of integrals          :    0.197 sec (  0.0%)
K(i,j) Operators          :    6.279 sec (  1.2%)
T(i,j) pair energies      :    1.155 sec (  0.2%)
V-calculation             :    0.012 sec (  0.0%)
V**(-1/2)                 :    0.030 sec (  0.0%)
Gamma(ia|P)               :    5.600 sec (  1.0%)
Gamma-Trafo               :    0.759 sec (  0.1%)
D(virtual)                :    2.443 sec (  0.4%)
D(internal)               :    4.203 sec (  0.8%)
W(virtual)                :    5.049 sec (  0.9%)
W(internal)               :   14.322 sec (  2.6%)
L(virtual)                :    4.492 sec (  0.8%)
L(internal)               :    0.211 sec (  0.0%)
G(D)                      :   11.210 sec (  2.1%)
G(Z)                      :   11.828 sec (  2.2%)
Z-Vector Solution         :  374.389 sec ( 69.0%)
Z-Vector Solution         :  374.389 sec ( 69.0%)
3-Index Derivative 
+ Separable RIJ part      :    3.816 sec (  0.7%)
2-Index Derivative 
+ Separable RIJ part      :    0.032 sec (  0.0%)
Separable Gradient (COSX) :   92.498 sec ( 17.0%)


---------------------------------------
MP2 TOTAL ENERGY:    -1669.527557665 Eh
---------------------------------------

The final MP2 gradient
  0:  -0.00311452  -0.00047024  -0.00341715
  1:  -0.00464111   0.05228515  -0.00887130
  2:   0.00217003  -0.00179432   0.00250082
  3:  -0.00121888   0.00298086   0.00606065
  4:   0.00609805   0.00321221  -0.00066421
  5:  -0.01291619  -0.01752494   0.00312229
  6:   0.00187496  -0.01615112  -0.01132840
  7:   0.01921609  -0.03633556   0.02036775
  8:   0.00079584   0.00546077   0.00171463
  9:   0.00909044  -0.00129880  -0.01124461
 10:  -0.00746690   0.01236889  -0.00814350
 11:  -0.01042749  -0.00258435   0.00925902

-----------------------------------
NORM OF THE MP2 GRADIENT:  0.081645
-----------------------------------

Entering the calculation of the dispersion correction...

Checking the input atom types...

Done


-------------------------------------------------------------------------------
                          DFT DISPERSION CORRECTION                            
                                                                               
                                DFTD3 V2.1  Rev 6                               
                          USING Becke-Johnson damping                          
-------------------------------------------------------------------------------
The B2PLYP functional is recognized
Active option DFTDOPT                   ...         4   

molecular C6(AA) [au] = 4942.397351 


            DFT-D V3
 parameters
 s6 scaling factor         :     0.6400 
 a1 scaling factor         :     0.3065 
 s8 scaling factor         :     0.9147 
 a2 scaling factor         :     5.0570 
 ad hoc parameters k1-k3   :    16.0000     1.3333    -4.0000 

 Edisp/kcal,au: -6.060702166686  -0.009658342656 
 E6   /kcal   :  -2.900344436 
 E8   /kcal   :  -3.160357730 
 % E8         :  52.145075659 

-------------------------   ----------------
Dispersion correction           -0.009658343
-------------------------   ----------------


-------------------------   --------------------
FINAL SINGLE POINT ENERGY     -1669.537216007211
-------------------------   --------------------


                            ***************************************
                            *     ORCA property calculations      *
                            ***************************************


  WARNING: The energy has been calculated at the MP2 level but the densities
           used in the property calculations are still SCF densities
           MP2 response densities have not been calculated 
           use %mp2 Density relaxed end
           or  %mp2 Density unrelaxed end

                                    ---------------------
                                    Active property flags
                                    ---------------------
   (+) Dipole Moment


------------------------------------------------------------------------------
                       ORCA ELECTRIC PROPERTIES CALCULATION
------------------------------------------------------------------------------

Dipole Moment Calculation                       ... on
Quadrupole Moment Calculation                   ... off
Polarizability Calculation                      ... off
GBWName                                         ... PbMACl3_mp2_md2_6.orca.gbw
Electron density file                           ... PbMACl3_mp2_md2_6.orca.scfp.tmp

-------------
DIPOLE MOMENT
-------------
                                X             Y             Z
Electronic contribution:    -22.89527    -175.22386     -19.70574
Nuclear contribution   :     25.63582     171.83900      22.48566
                        -----------------------------------------
Total Dipole Moment    :      2.74055      -3.38486       2.77993
                        -----------------------------------------
Magnitude (a.u.)       :      5.16681
Magnitude (Debye)      :     13.13299


                         *** MP2 UNRELAXED DENSITY ***

------------------------------------------------------------------------------
                       ORCA ELECTRIC PROPERTIES CALCULATION
------------------------------------------------------------------------------

Dipole Moment Calculation                       ... on
Quadrupole Moment Calculation                   ... off
Polarizability Calculation                      ... off
GBWName                                         ... PbMACl3_mp2_md2_6.orca.gbw
Electron density file                           ... PbMACl3_mp2_md2_6.orca.pmp2ur

-------------
DIPOLE MOMENT
-------------
                                X             Y             Z
Electronic contribution:    -22.91367    -175.19493     -19.72439
Nuclear contribution   :     25.63582     171.83900      22.48566
                        -----------------------------------------
Total Dipole Moment    :      2.72215      -3.35594       2.76128
                        -----------------------------------------
Magnitude (a.u.)       :      5.12807
Magnitude (Debye)      :     13.03451


                           *** MP2 RELAXED DENSITY ***

------------------------------------------------------------------------------
                       ORCA ELECTRIC PROPERTIES CALCULATION
------------------------------------------------------------------------------

Dipole Moment Calculation                       ... on
Quadrupole Moment Calculation                   ... off
Polarizability Calculation                      ... off
GBWName                                         ... PbMACl3_mp2_md2_6.orca.gbw
Electron density file                           ... PbMACl3_mp2_md2_6.orca.pmp2re

-------------
DIPOLE MOMENT
-------------
                                X             Y             Z
Electronic contribution:    -22.96465    -175.12629     -19.77721
Nuclear contribution   :     25.63582     171.83900      22.48566
                        -----------------------------------------
Total Dipole Moment    :      2.67117      -3.28729       2.70846
                        -----------------------------------------
Magnitude (a.u.)       :      5.02764
Magnitude (Debye)      :     12.77925


Timings for individual modules:

Sum of individual times         ...      849.174 sec (=  14.153 min)
GTO integral calculation        ...        3.427 sec (=   0.057 min)   0.4 %
SCF iterations                  ...      301.673 sec (=   5.028 min)  35.5 %
MP2 module                      ...      544.074 sec (=   9.068 min)  64.1 %
                             ****ORCA TERMINATED NORMALLY****
TOTAL RUN TIME: 0 days 0 hours 14 minutes 10 seconds 760 msec
