
                                 *****************
                                 * O   R   C   A *
                                 *****************

           --- An Ab Initio, DFT and Semiempirical electronic structure package ---

                  #######################################################
                  #                        -***-                        #
                  #  Department of molecular theory and spectroscopy    #
                  #              Directorship: Frank Neese              #
                  # Max Planck Institute for Chemical Energy Conversion #
                  #                  D-45470 Muelheim/Ruhr              #
                  #                       Germany                       #
                  #                                                     #
                  #                  All rights reserved                #
                  #                        -***-                        #
                  #######################################################


                         Program Version 3.0.3 - RELEASE   -


 With contributions from (in alphabetic order):
   Ute Becker             : Parallelization
   Dmytro Bykov           : SCF Hessian
   Dmitry Ganyushin       : Spin-Orbit,Spin-Spin,Magnetic field MRCI
   Andreas Hansen         : Spin unrestricted coupled pair/coupled cluster methods
   Dimitrios Liakos       : Extrapolation schemes; parallel MDCI
   Robert Izsak           : Overlap fitted RIJCOSX, COSX-SCS-MP3
   Christian Kollmar      : KDIIS, OOCD, Brueckner-CCSD(T), CCSD density
   Simone Kossmann        : Meta GGA functionals, TD-DFT gradient, OOMP2, MP2 Hessian
   Taras Petrenko         : DFT Hessian,TD-DFT gradient, ASA and ECA modules, normal mode analysis, Resonance Raman, ABS, FL, XAS/XES, NRVS
   Christoph Reimann      : Effective Core Potentials
   Michael Roemelt        : Restricted open shell CIS
   Christoph Riplinger    : Improved optimizer, TS searches, QM/MM, DLPNO-CCSD
   Barbara Sandhoefer     : DKH picture change effects
   Igor Schapiro          : Molecular dynamics
   Kantharuban Sivalingam : CASSCF convergence, NEVPT2
   Boris Wezisla          : Elementary symmetry handling
   Frank Wennmohs         : Technical directorship


 We gratefully acknowledge several colleagues who have allowed us to
 interface, adapt or use parts of their codes:
   Stefan Grimme, W. Hujo, H. Kruse, T. Risthaus : VdW corrections, initial TS optimization,
                                                   DFT functionals, gCP
   Ed Valeev                                     : LibInt (2-el integral package), F12 methods
   Garnet Chan, S. Sharma, R. Olivares           : DMRG
   Ulf Ekstrom                                   : XCFun DFT Library
   Mihaly Kallay                                 : mrcc  (arbitrary order and MRCC methods)
   Andreas Klamt, Michael Diedenhofen            : otool_cosmo (COSMO solvation model)
   Frank Weinhold                                : gennbo (NPA and NBO analysis)
   Christopher J. Cramer and Donald G. Truhlar   : smd solvation model


 Your calculation uses the libint2 library for the computation of 2-el integrals
 For citations please refer to: http://libint.valeyev.net

 This ORCA versions uses:
   CBLAS   interface :  Fast vector & matrix operations
   LAPACKE interface :  Fast linear algebra routines
   SCALAPACK package :  Parallel linear algebra routines


Your calculation utilizes the basis: Ahlrichs-TZV
Cite in your paper:
H - Kr: A. Schaefer, H. Horn and R. Ahlrichs, J. Chem. Phys. 97, 2571 (1992).

The def2-TZV basis will be loaded
Cite in your paper:
 	F. Weigend, R. Ahlrichs, Phys. Chem. Chem. Phys. 2005, 7, 3297.

Your calculation utilizes the atom-pairwise dispersion correction
with the Becke-Johnson damping scheme (D3BJ)
Cite in your paper:
S.Grimme, S.Ehrlich, L.Goerigk, J Comput Chem, (2011), 32, 1456–1465 
S.Grimme, J.Antony, S.Ehrlich and H.Krieg, J.Chem.Phys., 132, (2010), 154104 
   

================================================================================
                                        WARNINGS
                       Please study these warnings very carefully!
================================================================================

WARNING: The RI method has been chosen with no auxiliary basis (AUX or GTOAUX in BASIS block)
        Standard TZV/J expansion basis used (GTOAUX=TZV_J)

Now building the actual basis set
cite the ECPs for Pb [SD(60,MDF)] as follows:
  B. Metz, H. Stoll, M. Dolg, J. Chem. Phys. 113, 2563 (2000).

ECP parameters for Pb [SD(60,MDF)] have been obtained from:
  pseudopotential library of the Stuttgart/Cologne group
  http://www.theochem.uni-stuttgart.de/pseudopotentials/

cite the ECP basis sets for Pb [DEF2-TZVP] as follows:
  F. Weigend, R. Ahlrichs; Phys. Chem. Chem. Phys. 7, 3297(2005).

ECP basis sets for Pb [DEF2-TZVP] have been obtained from:
  Turbomole basis set library
  ftp://ftp.chemie.uni-karlsruhe.de/pub/basen/



INFO   : the flag for use of LIBINT has been found!

================================================================================
                                       INPUT FILE
================================================================================
NAME = PbCl6_MA2_mp2_sp_1.orca
|  1> ! RIJCOSX RI-B2PLYP D3BJ def2-TZVP ECP{def2-TZVP} TIGHTSCF Grid5 FinalGrid6 MORead
|  2> %method
|  3>  RunTyp Gradient
|  4>  end
|  5> %maxcore 1000
|  6> %moinp "previous.gbw"
|  7> *xyz 0 1
|  8> C 2.891451 3.575826 2.778059 
|  9> N 2.089424 2.555032 2.059582 
| 10> H 3.558472 3.076137 3.484362 
| 11> H 2.218727 4.247132 3.316750 
| 12> H 3.479382 4.144646 2.054078 
| 13> H 1.492676 1.958835 2.673590 
| 14> H 2.651801 1.866309 1.511973 
| 15> H 1.418732 2.942131 1.359080 
| 16> Pb 0.082087 -0.014270 0.220394 
| 17> Cl 2.691089 0.138863 0.207243 
| 18> Cl -0.083142 2.571506 -0.135116 
| 19> Cl 0.060245 0.337990 2.804763 
| 20> Cl -2.538555 -0.149961 0.227971 
| 21> Cl 0.107759 -0.349883 -2.361919 
| 22> Cl 0.244278 -2.590947 0.584580 
| 23> N -1.944119 -2.595072 -1.633806 
| 24> C -2.725500 -3.643046 -2.335777 
| 25> H -2.519034 -1.905375 -1.102173 
| 26> H -1.352579 -2.002501 -2.255638 
| 27> H -3.308461 -4.206070 -1.603344 
| 28> H -2.038395 -4.314606 -2.855607 
| 29> H -3.396098 -3.169682 -3.056568 
| 30> H -1.270867 -2.959590 -0.921865 
| 31> *
| 32> 
| 33>                          ****END OF INPUT****
================================================================================

                     *******************************
                     * Energy+Gradient Calculation *
                     *******************************

---------------------------------
CARTESIAN COORDINATES (ANGSTROEM)
---------------------------------
  C      2.891451    3.575826    2.778059
  N      2.089424    2.555032    2.059582
  H      3.558472    3.076137    3.484362
  H      2.218727    4.247132    3.316750
  H      3.479382    4.144646    2.054078
  H      1.492676    1.958835    2.673590
  H      2.651801    1.866309    1.511973
  H      1.418732    2.942131    1.359080
  Pb     0.082087   -0.014270    0.220394
  Cl     2.691089    0.138863    0.207243
  Cl    -0.083142    2.571506   -0.135116
  Cl     0.060245    0.337990    2.804763
  Cl    -2.538555   -0.149961    0.227971
  Cl     0.107759   -0.349883   -2.361919
  Cl     0.244278   -2.590947    0.584580
  N     -1.944119   -2.595072   -1.633806
  C     -2.725500   -3.643046   -2.335777
  H     -2.519034   -1.905375   -1.102173
  H     -1.352579   -2.002501   -2.255638
  H     -3.308461   -4.206070   -1.603344
  H     -2.038395   -4.314606   -2.855607
  H     -3.396098   -3.169682   -3.056568
  H     -1.270867   -2.959590   -0.921865

----------------------------
CARTESIAN COORDINATES (A.U.)
----------------------------
  NO LB      ZA    FRAG    MASS        X           Y           Z
   0 C     6.0000    0    12.011          5.464050519652737          6.757331842555094          5.249770693875139
   1 N     7.0000    0    14.007          3.948439137642278          4.828310743405084          3.892045930353799
   2 H     1.0000    0     1.008          6.724537535227024          5.813056480422118          6.584489931442120
   3 H     1.0000    0     1.008          4.192786395936697          8.025916334613234          6.267749154683311
   4 H     1.0000    0     1.008          6.575079095295193          7.832245862052179          3.881644877712697
   5 H     1.0000    0     1.008          2.820748846677038          3.701661691539635          5.052352894390519
   6 H     1.0000    0     1.008          5.011177651658508          3.526812891272437          2.857214891883316
   7 H     1.0000    0     1.008          2.681014937430366          5.559821840119866          2.568288994089695
   8 Pb   22.0000*   0   207.200  0.155121949155194  -0.026966391931056  0.416484301559440
   9 Cl   17.0000    0    35.453          5.085421212008007          0.262413040134707          0.391632513172242
  10 Cl   17.0000    0    35.453         -0.157115610226481          4.859442091735302         -0.255332236310904
  11 Cl   17.0000    0    35.453          0.113846550938086          0.638708536004044          5.300233940555372
  12 Cl   17.0000    0    35.453         -4.797173725896463         -0.283385220768965          0.430802756476162
  13 Cl   17.0000    0    35.453          0.203634998465220         -0.661183048914769         -4.463380060505148
  14 Cl   17.0000    0    35.453          0.461618520542016         -4.896180257504865          1.104696103367685
  15 N     7.0000    0    14.007         -3.673852481752850         -4.903975377807290         -3.087445895957345
  16 C     6.0000    0    12.011         -5.150448578002371         -6.884359233277280         -4.413978839912180
  17 H     1.0000    0     1.008         -4.760284382036186         -3.600636932420205         -2.082805122202388
  18 H     1.0000    0     1.008         -2.556003884493073         -3.784178472903441         -4.262538077265864
  19 H     1.0000    0     1.008         -6.252085214759238         -7.948320400102160         -3.029881058465835
  20 H     1.0000    0     1.008         -3.852008302754410         -8.153423715773437         -5.396315176108463
  21 H     1.0000    0     1.008         -6.417695143957695         -5.989830911619781         -5.776076429707413
  22 H     1.0000    0     1.008         -2.401590582638099         -5.592814568691997         -1.742072382447315
* core charge reduced due to ECP

--------------------------------
INTERNAL COORDINATES (ANGSTROEM)
--------------------------------
 C      0   0   0   0.000000     0.000     0.000
 N      1   0   0   1.483737     0.000     0.000
 H      1   2   0   1.092461   109.173     0.000
 H      1   2   3   1.092427   109.189   239.987
 H      1   2   3   1.092414   109.162   119.981
 H      2   1   3   1.043343   114.666    59.960
 H      2   1   3   1.044262   114.619   299.917
 H      2   1   3   1.044211   114.645   179.984
 Pb     7   2   1   3.436304    98.935   180.407
 Cl     7   2   1   2.165164   148.427   180.377
 Cl     8   2   1   2.150723   148.288   179.105
 Cl     6   2   1   2.167073   147.254   179.962
 Cl     9   7   2   2.624163   140.717     0.552
 Cl     9   7   2   2.604157   115.841   127.611
 Cl     9   7   2   2.607336   116.220   232.180
 N     15   9   7   3.116141    81.847   195.406
 C     16  15   9   1.483769   135.037   180.345
 H     16  15   9   1.043476    91.338   308.273
 H     16  15   9   1.042945    91.455    52.246
 H     17  16  15   1.092382   109.139    59.995
 H     17  16  15   1.092396   109.153   300.052
 H     17  16  15   1.092390   109.232   180.005
 H     16  15   9   1.045467    20.516   180.121

---------------------------
INTERNAL COORDINATES (A.U.)
---------------------------
 C      0   0   0   0.000000     0.000     0.000
 N      1   0   0   2.803857     0.000     0.000
 H      1   2   0   2.064451   109.173     0.000
 H      1   2   3   2.064388   109.189   239.987
 H      1   2   3   2.064363   109.162   119.981
 H      2   1   3   1.971633   114.666    59.960
 H      2   1   3   1.973369   114.619   299.917
 H      2   1   3   1.973273   114.645   179.984
 Pb     7   2   1   6.493673    98.935   180.407
 Cl     7   2   1   4.091566   148.427   180.377
 Cl     8   2   1   4.064278   148.288   179.105
 Cl     6   2   1   4.095174   147.254   179.962
 Cl     9   7   2   4.958950   140.717     0.552
 Cl     9   7   2   4.921144   115.841   127.611
 Cl     9   7   2   4.927151   116.220   232.180
 N     15   9   7   5.888653    81.847   195.406
 C     16  15   9   2.803916   135.037   180.345
 H     16  15   9   1.971884    91.338   308.273
 H     16  15   9   1.970881    91.455    52.246
 H     17  16  15   2.064302   109.139    59.995
 H     17  16  15   2.064330   109.153   300.052
 H     17  16  15   2.064317   109.232   180.005
 H     16  15   9   1.975647    20.516   180.121

---------------------
BASIS SET INFORMATION
---------------------
There are 5 groups of distinct atoms

 Group   1 Type C   : 11s6p2d1f contracted to 5s3p2d1f pattern {62111/411/11/1}
 Group   2 Type N   : 11s6p2d1f contracted to 5s3p2d1f pattern {62111/411/11/1}
 Group   3 Type H   : 5s1p contracted to 3s1p pattern {311/1}
 Group   4 Type Pb  : 10s9p8d2f contracted to 6s5p3d2f pattern {421111/33111/611/11}
 Group   5 Type Cl  : 14s9p3d1f contracted to 5s5p2d1f pattern {73211/51111/21/1}

Atom   0C    basis set group =>   1
Atom   1N    basis set group =>   2
Atom   2H    basis set group =>   3
Atom   3H    basis set group =>   3
Atom   4H    basis set group =>   3
Atom   5H    basis set group =>   3
Atom   6H    basis set group =>   3
Atom   7H    basis set group =>   3
Atom   8Pb   basis set group =>   4
Atom   9Cl   basis set group =>   5
Atom  10Cl   basis set group =>   5
Atom  11Cl   basis set group =>   5
Atom  12Cl   basis set group =>   5
Atom  13Cl   basis set group =>   5
Atom  14Cl   basis set group =>   5
Atom  15N    basis set group =>   2
Atom  16C    basis set group =>   1
Atom  17H    basis set group =>   3
Atom  18H    basis set group =>   3
Atom  19H    basis set group =>   3
Atom  20H    basis set group =>   3
Atom  21H    basis set group =>   3
Atom  22H    basis set group =>   3
-------------------------------
AUXILIARY BASIS SET INFORMATION
-------------------------------
There are 5 groups of distinct atoms

 Group   1 Type C   : 12s5p4d2f1g contracted to 6s4p3d1f1g pattern {711111/2111/211/2/1}
 Group   2 Type N   : 12s5p4d2f1g contracted to 6s4p3d1f1g pattern {711111/2111/211/2/1}
 Group   3 Type H   : 5s2p1d contracted to 3s1p1d pattern {311/2/1}
 Group   4 Type Pb  : 31s12p8d6f3g contracted to 31s12p8d6f3g pattern {1111111111111111111111111111111/111111111111/11111111/111111/111}
 Group   5 Type Cl  : 14s5p5d2f1g contracted to 8s4p3d1f1g pattern {71111111/2111/311/2/1}

Atom   0C    basis set group =>   1
Atom   1N    basis set group =>   2
Atom   2H    basis set group =>   3
Atom   3H    basis set group =>   3
Atom   4H    basis set group =>   3
Atom   5H    basis set group =>   3
Atom   6H    basis set group =>   3
Atom   7H    basis set group =>   3
Atom   8Pb   basis set group =>   4
Atom   9Cl   basis set group =>   5
Atom  10Cl   basis set group =>   5
Atom  11Cl   basis set group =>   5
Atom  12Cl   basis set group =>   5
Atom  13Cl   basis set group =>   5
Atom  14Cl   basis set group =>   5
Atom  15N    basis set group =>   2
Atom  16C    basis set group =>   1
Atom  17H    basis set group =>   3
Atom  18H    basis set group =>   3
Atom  19H    basis set group =>   3
Atom  20H    basis set group =>   3
Atom  21H    basis set group =>   3
Atom  22H    basis set group =>   3

-------------------------
ECP PARAMETER INFORMATION
-------------------------

 Group 1, Type Pb ECP SD(60,MDF) (replacing 60 core electrons, lmax=5)

Atom   8Pb   ECP group =>   1


------------------------------------------------------------------------------
                           ORCA GTO INTEGRAL CALCULATION
                           -- RI-GTO INTEGRALS CHOSEN --
------------------------------------------------------------------------------

                         BASIS SET STATISTICS AND STARTUP INFO

Gaussian basis set:
 # of primitive gaussian shells          ...  343
 # of primitive gaussian functions       ...  749
 # of contracted shells                  ...  186
 # of contracted basis functions         ...  468
 Highest angular momentum                ...    3
 Maximum contraction depth               ...    7
Auxiliary gaussian basis set:
 # of primitive gaussian shells          ...  414
 # of primitive gaussian functions       ... 1110
 # of contracted shells                  ...  282
 # of contracted aux-basis functions     ...  810
 Highest angular momentum                ...    4
 Maximum contraction depth               ...    7
Ratio of auxiliary to basis functions    ...  1.73
Integral package used                  ... LIBINT
 One Electron integrals                  
   ECP integrals                         ... done
 Ordering auxiliary basis shells         ... done
 Integral threshhold             Thresh  ...  2.500e-11
 Primitive cut-off               TCut    ...  2.500e-12
 Pre-screening matrix                    ... done
 Shell pair data                         ... 
 Ordering of the shell pairs             ... done (   0.002 sec) 11673 of 17391 pairs
 Determination of significant pairs      ... done (   0.000 sec)
 Creation of shell pair data             ... done (   0.004 sec)
 Storage of shell pair data              ... done (   0.002 sec)
 Shell pair data done in (   0.008 sec)
 Computing two index integrals           ... done
 Cholesky decomposition of the V-matrix  ... done


Timings:
 Total evaluation time                   ...   1.312 sec (  0.022 min)
 One electron matrix time                ...   0.783 sec (  0.013 min) = 59.7%
 Schwartz matrix evaluation time         ...   0.447 sec (  0.007 min) = 34.1%
 Two index repulsion integral time       ...   0.024 sec (  0.000 min) =  1.8%
 Cholesky decomposition of V             ...   0.023 sec (  0.000 min) =  1.8%
 Three index repulsion integral time     ...   0.000 sec (  0.000 min) =  0.0%

-------------------------------------------------------------------------------
                                 ORCA SCF
-------------------------------------------------------------------------------

------------
SCF SETTINGS
------------
Hamiltonian:
 Density Functional     Method          .... DFT(GTOs)
 Exchange Functional    Exchange        .... B88
   X-Alpha parameter    XAlpha          ....  0.666667
   Becke's b parameter  XBeta           ....  0.004200
 Correlation Functional Correlation     .... LYP
 LDA part of GGA corr.  LDAOpt          .... VWN-3
 Gradients option       PostSCFGGA      .... off
 Hybrid DFT is turned on
   Fraction HF Exchange ScalHFX         ....  0.530000
   Scaling of DF-GGA-X  ScalDFX         ....  0.470000
   Scaling of DF-GGA-C  ScalDFC         ....  0.730000
   Scaling of DF-LDA-C  ScalLDAC        ....  0.730000
   Perturbative correction              ....  0.270000
 RI-approximation to the Coulomb term is turned on
   Number of auxiliary basis functions  .... 810
   RIJ-COSX (HFX calculated with COS-X)).... on


General Settings:
 Integral files         IntName         .... PbCl6_MA2_mp2_sp_1.orca
 Hartree-Fock type      HFTyp           .... RHF
 Total Charge           Charge          ....    0
 Multiplicity           Mult            ....    1
 Number of Electrons    NEL             ....  162
 Basis Dimension        Dim             ....  468
 Nuclear Repulsion      ENuc            ....   1712.0575783791 Eh

Convergence Acceleration:
 DIIS                   CNVDIIS         .... on
   Start iteration      DIISMaxIt       ....    12
   Startup error        DIISStart       ....  0.200000
   # of expansion vecs  DIISMaxEq       ....     5
   Bias factor          DIISBfac        ....   1.050
   Max. coefficient     DIISMaxC        ....  10.000
 Newton-Raphson         CNVNR           .... off
 SOSCF                  CNVSOSCF        .... on
   Start iteration      SOSCFMaxIt      ....   150
   Startup grad/error   SOSCFStart      ....  0.003300
 Level Shifting         CNVShift        .... on
   Level shift para.    LevelShift      ....    0.2500
   Turn off err/grad.   ShiftErr        ....    0.0010
 Zerner damping         CNVZerner       .... off
 Static damping         CNVDamp         .... on
   Fraction old density DampFac         ....    0.7000
   Max. Damping (<1)    DampMax         ....    0.9800
   Min. Damping (>=0)   DampMin         ....    0.0000
   Turn off err/grad.   DampErr         ....    0.1000
 Fernandez-Rico         CNVRico         .... off

SCF Procedure:
 Maximum # iterations   MaxIter         ....   125
 SCF integral mode      SCFMode         .... Direct
   Integral package                     .... LIBINT
 Reset frequeny         DirectResetFreq ....    20
 Integral Threshold     Thresh          ....  2.500e-11 Eh
 Primitive CutOff       TCut            ....  2.500e-12 Eh

Convergence Tolerance:
 Convergence Check Mode ConvCheckMode   .... Total+1el-Energy
 Energy Change          TolE            ....  1.000e-08 Eh
 1-El. energy change                    ....  1.000e-05 Eh
 Orbital Gradient       TolG            ....  1.000e-05
 Orbital Rotation angle TolX            ....  1.000e-05
 DIIS Error             TolErr          ....  5.000e-07


Diagonalization of the overlap matrix:
Smallest eigenvalue                        ... 1.104e-03
Time for diagonalization                   ...    0.077 sec
Threshold for overlap eigenvalues          ... 1.000e-08
Number of eigenvalues below threshold      ... 0
Time for construction of square roots      ...    0.029 sec
Total time needed                          ...    0.108 sec

---------------------
INITIAL GUESS: MOREAD
---------------------
Guess MOs are being read from file: previous.gbw
Input geometry compatible with but different from current geometry
Input basis set matches current basis set (good)
MOs were renormalized
MOs were reorthogonalized (Schmidt)
                      ------------------
                      INITIAL GUESS DONE (   0.8 sec)
                      ------------------
-------------------
DFT GRID GENERATION
-------------------

General Integration Accuracy     IntAcc      ...  5.010
Radial Grid Type                 RadialGrid  ... Gauss-Chebyshev
Angular Grid (max. acc.)         AngularGrid ... Lebedev-434
Angular grid pruning method      GridPruning ... 3 (G Style)
Weight generation scheme         WeightScheme... Becke
Basis function cutoff            BFCut       ...    1.0000e-11
Integration weight cutoff        WCut        ...    1.0000e-14
Grids for H and He will be reduced by one unit

# of grid points (after initial pruning)     ... 212974 (   0.1 sec)
# of grid points (after weights+screening)   ... 195575 (   1.1 sec)
nearest neighbour list constructed           ...    0.0 sec
Grid point re-assignment to atoms done       ...    0.0 sec
Grid point division into batches done        ...    1.5 sec
Reduced shell lists constructed in    7.6 sec

Total number of grid points                  ...   195575
Total number of batches                      ...     3070
Average number of points per batch           ...       63
Average number of grid points per atom       ...     8503
Average number of shells per batch           ...    70.07 (37.67%)
Average number of basis functions per batch  ...   179.53 (38.36%)
Average number of large shells per batch     ...    48.18 (68.76%)
Average number of large basis fcns per batch ...   122.82 (68.41%)
Maximum spatial batch extension              ...  35.03, 30.27, 27.44 au
Average spatial batch extension              ...   2.09,  2.08,  2.07 au

Time for grid setup =    8.819 sec

--------------------
COSX GRID GENERATION
--------------------

General Integration Accuracy     IntAcc      ...  3.340
Radial Grid Type                 RadialGrid  ... Gauss-Chebyshev
Angular Grid (max. acc.)         AngularGrid ... Lebedev-50
Angular grid pruning method      GridPruning ... 3 (G Style)
Weight generation scheme         WeightScheme... Becke
Basis function cutoff            BFCut       ...    1.0000e-11
Integration weight cutoff        WCut        ...    1.0000e-14
Grids for H and He will be reduced by one unit

# of grid points (after initial pruning)     ...  11762 (   0.0 sec)
# of grid points (after weights+screening)   ...  10891 (   0.1 sec)
nearest neighbour list constructed           ...    0.0 sec
Grid point re-assignment to atoms done       ...    0.0 sec
Grid point division into batches done        ...    0.0 sec
Reduced shell lists constructed in    0.4 sec

Total number of grid points                  ...    10891
Total number of batches                      ...      183
Average number of points per batch           ...       59
Average number of grid points per atom       ...      474
Average number of shells per batch           ...    88.76 (47.72%)
Average number of basis functions per batch  ...   231.91 (49.55%)
Average number of large shells per batch     ...    62.04 (69.90%)
Average number of large basis fcns per batch ...   161.46 (69.62%)
Maximum spatial batch extension              ...  25.46, 19.94, 23.10 au
Average spatial batch extension              ...   5.46,  4.94,  5.38 au

Overlap Fitting                  UseSFitting ... on
Constructing numerical overlap ... done (      0.3 sec)
Inverting numerical overlap    ... done (      0.0 sec)
Obtaining analytic overlap     ... done (      0.0 sec)
Final contraction and storage  ... done (      0.0 sec)


General Integration Accuracy     IntAcc      ...  3.670
Radial Grid Type                 RadialGrid  ... Gauss-Chebyshev
Angular Grid (max. acc.)         AngularGrid ... Lebedev-50
Angular grid pruning method      GridPruning ... 3 (G Style)
Weight generation scheme         WeightScheme... Becke
Basis function cutoff            BFCut       ...    1.0000e-11
Integration weight cutoff        WCut        ...    1.0000e-14
Grids for H and He will be reduced by one unit

# of grid points (after initial pruning)     ...  14690 (   0.0 sec)
# of grid points (after weights+screening)   ...  13571 (   0.1 sec)
nearest neighbour list constructed           ...    0.0 sec
Grid point re-assignment to atoms done       ...    0.0 sec
Grid point division into batches done        ...    0.0 sec
Reduced shell lists constructed in    0.5 sec

Total number of grid points                  ...    13571
Total number of batches                      ...      222
Average number of points per batch           ...       61
Average number of grid points per atom       ...      590
Average number of shells per batch           ...    86.86 (46.70%)
Average number of basis functions per batch  ...   226.50 (48.40%)
Average number of large shells per batch     ...    60.63 (69.80%)
Average number of large basis fcns per batch ...   157.08 (69.35%)
Maximum spatial batch extension              ...  26.87, 20.69, 23.92 au
Average spatial batch extension              ...   5.08,  4.78,  5.00 au

Overlap Fitting                  UseSFitting ... on
Constructing numerical overlap ... done (      0.3 sec)
Inverting numerical overlap    ... done (      0.0 sec)
Obtaining analytic overlap     ... done (      0.0 sec)
Final contraction and storage  ... done (      0.0 sec)


General Integration Accuracy     IntAcc      ...  4.010
Radial Grid Type                 RadialGrid  ... Gauss-Chebyshev
Angular Grid (max. acc.)         AngularGrid ... Lebedev-110
Angular grid pruning method      GridPruning ... 3 (G Style)
Weight generation scheme         WeightScheme... Becke
Basis function cutoff            BFCut       ...    1.0000e-11
Integration weight cutoff        WCut        ...    1.0000e-14
Grids for H and He will be reduced by one unit

# of grid points (after initial pruning)     ...  27082 (   0.0 sec)
# of grid points (after weights+screening)   ...  25239 (   0.1 sec)
nearest neighbour list constructed           ...    0.0 sec
Grid point re-assignment to atoms done       ...    0.0 sec
Grid point division into batches done        ...    0.0 sec
Reduced shell lists constructed in    0.9 sec

Total number of grid points                  ...    25239
Total number of batches                      ...      406
Average number of points per batch           ...       62
Average number of grid points per atom       ...     1097
Average number of shells per batch           ...    82.13 (44.15%)
Average number of basis functions per batch  ...   213.64 (45.65%)
Average number of large shells per batch     ...    57.05 (69.46%)
Average number of large basis fcns per batch ...   147.60 (69.09%)
Maximum spatial batch extension              ...  28.64, 26.73, 26.92 au
Average spatial batch extension              ...   4.22,  4.18,  4.20 au

Overlap Fitting                  UseSFitting ... on
Constructing numerical overlap ... done (      0.5 sec)
Inverting numerical overlap    ... done (      0.0 sec)
Obtaining analytic overlap     ... done (      0.0 sec)
Final contraction and storage  ... done (      0.0 sec)

Time for X-Grid setup             =    3.492 sec
--------------
SCF ITERATIONS
--------------
ITER       Energy         Delta-E        Max-DP      RMS-DP      [F,P]     Damp
               ***  Starting incremental Fock matrix formation  ***
  0  -3145.3978134753   0.000000000000 0.00055637  0.00000872  0.0145326 0.7000
                      *** Initiating the SOSCF procedure ***
                      *** Re-Reading the Fockian *** 
                      *** Removing any level shift *** 
ITER      Energy       Delta-E        Grad      Rot      Max-DP    RMS-DP
  1  -3145.39783140  -0.0000179267  0.000210  0.000210  0.001895  0.000027
               *** Restarting incremental Fock matrix formation ***
  2  -3145.39787893  -0.0000475278  0.000170  0.000791  0.001053  0.000011
  3  -3145.39788257  -0.0000036359  0.000079  0.000332  0.000349  0.000006
  4  -3145.39788387  -0.0000013070  0.000022  0.000057  0.000070  0.000001
  5  -3145.39788392  -0.0000000514  0.000007  0.000036  0.000040  0.000000
  6  -3145.39788394  -0.0000000176  0.000005  0.000013  0.000036  0.000000
  7  -3145.39788392   0.0000000222  0.000004  0.000005  0.000013  0.000000
                  ***Gradient check signals convergence***
              ***Rediagonalizing the Fockian in SOSCF/NRSCF***

               *****************************************************
               *                     SUCCESS                       *
               *           SCF CONVERGED AFTER   8 CYCLES          *
               *****************************************************

Old exchange energy                            =   -110.365903225 Eh
New exchange energy                            =   -110.372943511 Eh
Exchange energy change after final integration =     -0.007040286 Eh
Total energy after final integration           =  -3145.404924261 Eh
Final COS-X integration done in                =    68.873 sec

----------------
TOTAL SCF ENERGY
----------------

Total Energy       :        -3145.40492426 Eh          -85590.81934 eV

Components:
Nuclear Repulsion  :         1712.05757838 Eh           46587.45517 eV
Electronic Energy  :        -4857.46250264 Eh         -132178.27451 eV

One Electron Energy:        -7828.95539484 Eh         -213036.70687 eV
Two Electron Energy:         2971.49289220 Eh           80858.43236 eV

Virial components:
Potential Energy   :        -6157.67907443 Eh         -167558.96615 eV
Kinetic Energy     :         3012.27415017 Eh           81968.14681 eV
Virial Ratio       :            2.04419610


DFT components:
N(Alpha)           :       81.000008835544 electrons
N(Beta)            :       81.000008835544 electrons
N(Total)           :      162.000017671087 electrons
E(X)               :      -97.946463508184 Eh       
E(C)               :       -4.612774042081 Eh       
E(XC)              :     -102.559237550265 Eh       

---------------
SCF CONVERGENCE
---------------

  Last Energy change         ...   -5.5674e-08  Tolerance :   1.0000e-08
  Last MAX-Density change    ...    4.1362e-14  Tolerance :   1.0000e-07
  Last RMS-Density change    ...    4.6478e-16  Tolerance :   5.0000e-09
  Last Orbital Gradient      ...    6.7528e-07  Tolerance :   1.0000e-05
  Last Orbital Rotation      ...    1.8432e-06  Tolerance :   1.0000e-05

             **** THE GBW FILE WAS UPDATED (PbCl6_MA2_mp2_sp_1.orca.gbw) ****
             **** DENSITY FILE WAS UPDATED (PbCl6_MA2_mp2_sp_1.orca.scfp.tmp) ****
             **** ENERGY FILE WAS UPDATED (PbCl6_MA2_mp2_sp_1.orca.en.tmp) ****
----------------
ORBITAL ENERGIES
----------------

  NO   OCC          E(Eh)            E(eV) 
   0   2.0000    -102.866403     -2799.1371 
   1   2.0000    -102.865905     -2799.1236 
   2   2.0000    -102.865608     -2799.1155 
   3   2.0000    -102.864966     -2799.0980 
   4   2.0000    -102.864381     -2799.0821 
   5   2.0000    -102.863932     -2799.0699 
   6   2.0000     -14.959994      -407.0821 
   7   2.0000     -14.955015      -406.9467 
   8   2.0000     -10.708645      -291.3971 
   9   2.0000     -10.705928      -291.3231 
  10   2.0000      -9.872813      -268.6529 
  11   2.0000      -9.872255      -268.6377 
  12   2.0000      -9.872033      -268.6317 
  13   2.0000      -9.871343      -268.6129 
  14   2.0000      -9.870832      -268.5990 
  15   2.0000      -9.870158      -268.5806 
  16   2.0000      -7.510761      -204.3782 
  17   2.0000      -7.510257      -204.3645 
  18   2.0000      -7.510008      -204.3577 
  19   2.0000      -7.509320      -204.3390 
  20   2.0000      -7.508769      -204.3240 
  21   2.0000      -7.508151      -204.3072 
  22   2.0000      -7.507845      -204.2989 
  23   2.0000      -7.507334      -204.2849 
  24   2.0000      -7.507249      -204.2826 
  25   2.0000      -7.507046      -204.2771 
  26   2.0000      -7.506780      -204.2699 
  27   2.0000      -7.506553      -204.2637 
  28   2.0000      -7.506375      -204.2589 
  29   2.0000      -7.505874      -204.2452 
  30   2.0000      -7.505867      -204.2450 
  31   2.0000      -7.505361      -204.2312 
  32   2.0000      -7.505188      -204.2265 
  33   2.0000      -7.504707      -204.2135 
  34   2.0000      -5.835388      -158.7890 
  35   2.0000      -3.608312       -98.1872 
  36   2.0000      -3.607588       -98.1675 
  37   2.0000      -3.607567       -98.1669 
  38   2.0000      -1.136978       -30.9388 
  39   2.0000      -1.133408       -30.8416 
  40   2.0000      -1.009566       -27.4717 
  41   2.0000      -1.008961       -27.4552 
  42   2.0000      -0.994544       -27.0629 
  43   2.0000      -0.993355       -27.0306 
  44   2.0000      -0.993153       -27.0251 
  45   2.0000      -0.903601       -24.5882 
  46   2.0000      -0.884675       -24.0732 
  47   2.0000      -0.881518       -23.9873 
  48   2.0000      -0.880221       -23.9520 
  49   2.0000      -0.862741       -23.4764 
  50   2.0000      -0.861999       -23.4562 
  51   2.0000      -0.857066       -23.3220 
  52   2.0000      -0.853459       -23.2238 
  53   2.0000      -0.664181       -18.0733 
  54   2.0000      -0.663604       -18.0576 
  55   2.0000      -0.660697       -17.9785 
  56   2.0000      -0.660411       -17.9707 
  57   2.0000      -0.599101       -16.3024 
  58   2.0000      -0.596105       -16.2208 
  59   2.0000      -0.573054       -15.5936 
  60   2.0000      -0.519296       -14.1308 
  61   2.0000      -0.519266       -14.1299 
  62   2.0000      -0.516809       -14.0631 
  63   2.0000      -0.516717       -14.0606 
  64   2.0000      -0.412247       -11.2178 
  65   2.0000      -0.411634       -11.2011 
  66   2.0000      -0.410708       -11.1759 
  67   2.0000      -0.374939       -10.2026 
  68   2.0000      -0.369451       -10.0533 
  69   2.0000      -0.369061       -10.0427 
  70   2.0000      -0.353496        -9.6191 
  71   2.0000      -0.352607        -9.5949 
  72   2.0000      -0.351692        -9.5700 
  73   2.0000      -0.346849        -9.4382 
  74   2.0000      -0.345601        -9.4043 
  75   2.0000      -0.345065        -9.3897 
  76   2.0000      -0.339357        -9.2344 
  77   2.0000      -0.338853        -9.2207 
  78   2.0000      -0.336907        -9.1677 
  79   2.0000      -0.336343        -9.1523 
  80   2.0000      -0.331739        -9.0271 
  81   0.0000      -0.120970        -3.2918 
  82   0.0000       0.038634         1.0513 
  83   0.0000       0.041771         1.1367 
  84   0.0000       0.083681         2.2771 
  85   0.0000       0.088012         2.3949 
  86   0.0000       0.088425         2.4062 
  87   0.0000       0.090032         2.4499 
  88   0.0000       0.095502         2.5987 
  89   0.0000       0.113260         3.0820 
  90   0.0000       0.113553         3.0899 
  91   0.0000       0.115515         3.1433 
  92   0.0000       0.115728         3.1491 
  93   0.0000       0.140342         3.8189 
  94   0.0000       0.142294         3.8720 
  95   0.0000       0.150592         4.0978 
  96   0.0000       0.151654         4.1267 
  97   0.0000       0.171992         4.6801 
  98   0.0000       0.174129         4.7383 
  99   0.0000       0.174732         4.7547 
 100   0.0000       0.176671         4.8075 
 101   0.0000       0.198397         5.3986 
 102   0.0000       0.220306         5.9948 
 103   0.0000       0.248642         6.7659 
 104   0.0000       0.249499         6.7892 
 105   0.0000       0.258551         7.0355 
 106   0.0000       0.259365         7.0577 
 107   0.0000       0.261461         7.1147 
 108   0.0000       0.269074         7.3219 
 109   0.0000       0.269740         7.3400 
 110   0.0000       0.282926         7.6988 
 111   0.0000       0.283544         7.7156 
 112   0.0000       0.303850         8.2682 
 113   0.0000       0.304174         8.2770 
 114   0.0000       0.315265         8.5788 
 115   0.0000       0.340910         9.2766 
 116   0.0000       0.341710         9.2984 
 117   0.0000       0.342041         9.3074 
 118   0.0000       0.369715        10.0605 
 119   0.0000       0.370693        10.0871 
 120   0.0000       0.377369        10.2687 
 121   0.0000       0.393981        10.7208 
 122   0.0000       0.399050        10.8587 
 123   0.0000       0.409546        11.1443 
 124   0.0000       0.410208        11.1623 
 125   0.0000       0.416863        11.3434 
 126   0.0000       0.425015        11.5652 
 127   0.0000       0.437189        11.8965 
 128   0.0000       0.437940        11.9170 
 129   0.0000       0.441895        12.0246 
 130   0.0000       0.455768        12.4021 
 131   0.0000       0.456929        12.4337 
 132   0.0000       0.457192        12.4408 
 133   0.0000       0.460174        12.5220 
 134   0.0000       0.460930        12.5425 
 135   0.0000       0.461348        12.5539 
 136   0.0000       0.480541        13.0762 
 137   0.0000       0.481171        13.0933 
 138   0.0000       0.481627        13.1057 
 139   0.0000       0.481847        13.1117 
 140   0.0000       0.482075        13.1179 
 141   0.0000       0.498701        13.5703 
 142   0.0000       0.499129        13.5820 
 143   0.0000       0.505630        13.7589 
 144   0.0000       0.506152        13.7731 
 145   0.0000       0.518441        14.1075 
 146   0.0000       0.520951        14.1758 
 147   0.0000       0.524725        14.2785 
 148   0.0000       0.525257        14.2930 
 149   0.0000       0.546811        14.8795 
 150   0.0000       0.557562        15.1720 
 151   0.0000       0.562429        15.3045 
 152   0.0000       0.587614        15.9898 
 153   0.0000       0.588010        16.0006 
 154   0.0000       0.597196        16.2505 
 155   0.0000       0.598023        16.2730 
 156   0.0000       0.599583        16.3155 
 157   0.0000       0.604563        16.4510 
 158   0.0000       0.607751        16.5378 
 159   0.0000       0.614942        16.7334 
 160   0.0000       0.618095        16.8192 
 161   0.0000       0.632843        17.2205 
 162   0.0000       0.634401        17.2629 
 163   0.0000       0.646998        17.6057 
 164   0.0000       0.655465        17.8361 
 165   0.0000       0.660459        17.9720 
 166   0.0000       0.662798        18.0357 
 167   0.0000       0.669580        18.2202 
 168   0.0000       0.681715        18.5504 
 169   0.0000       0.714267        19.4362 
 170   0.0000       0.715272        19.4635 
 171   0.0000       0.715936        19.4816 
 172   0.0000       0.720237        19.5986 
 173   0.0000       0.721555        19.6345 
 174   0.0000       0.722528        19.6610 
 175   0.0000       0.736650        20.0453 
 176   0.0000       0.737867        20.0784 
 177   0.0000       0.738902        20.1066 
 178   0.0000       0.767386        20.8816 
 179   0.0000       0.769926        20.9508 
 180   0.0000       0.776084        21.1183 
 181   0.0000       0.777158        21.1476 
 182   0.0000       0.798744        21.7349 
 183   0.0000       0.804915        21.9028 
 184   0.0000       0.821970        22.3669 
 185   0.0000       0.838412        22.8143 
 186   0.0000       0.847489        23.0613 
 187   0.0000       0.848563        23.0906 
 188   0.0000       0.862410        23.4674 
 189   0.0000       0.903409        24.5830 
 190   0.0000       0.903852        24.5951 
 191   0.0000       0.905493        24.6397 
 192   0.0000       0.909293        24.7431 
 193   0.0000       0.910659        24.7803 
 194   0.0000       0.916561        24.9409 
 195   0.0000       0.917966        24.9791 
 196   0.0000       0.932246        25.3677 
 197   0.0000       0.933979        25.4148 
 198   0.0000       0.983436        26.7606 
 199   0.0000       0.983626        26.7658 
 200   0.0000       1.000089        27.2138 
 201   0.0000       1.035269        28.1711 
 202   0.0000       1.056356        28.7449 
 203   0.0000       1.086447        29.5637 
 204   0.0000       1.139441        31.0058 
 205   0.0000       1.140574        31.0366 
 206   0.0000       1.170115        31.8404 
 207   0.0000       1.170856        31.8606 
 208   0.0000       1.205737        32.8098 
 209   0.0000       1.206186        32.8220 
 210   0.0000       1.210013        32.9261 
 211   0.0000       1.210166        32.9303 
 212   0.0000       1.292987        35.1840 
 213   0.0000       1.294895        35.2359 
 214   0.0000       1.296235        35.2724 
 215   0.0000       1.303806        35.4784 
 216   0.0000       1.306869        35.5617 
 217   0.0000       1.329788        36.1854 
 218   0.0000       1.364546        37.1312 
 219   0.0000       1.371527        37.3211 
 220   0.0000       1.383515        37.6474 
 221   0.0000       1.387994        37.7692 
 222   0.0000       1.404129        38.2083 
 223   0.0000       1.497744        40.7557 
 224   0.0000       1.501664        40.8624 
 225   0.0000       1.565904        42.6104 
 226   0.0000       1.568215        42.6733 
 227   0.0000       1.593018        43.3482 
 228   0.0000       1.594393        43.3857 
 229   0.0000       1.596886        43.4535 
 230   0.0000       1.598069        43.4857 
 231   0.0000       1.601294        43.5734 
 232   0.0000       1.602792        43.6142 
 233   0.0000       1.620304        44.0907 
 234   0.0000       1.625452        44.2308 
 235   0.0000       1.738446        47.3055 
 236   0.0000       1.743246        47.4361 
 237   0.0000       1.780939        48.4618 
 238   0.0000       1.781097        48.4661 
 239   0.0000       1.789153        48.6853 
 240   0.0000       1.789353        48.6908 
 241   0.0000       1.874500        51.0077 
 242   0.0000       1.892223        51.4900 
 243   0.0000       1.892516        51.4980 
 244   0.0000       1.897827        51.6425 
 245   0.0000       1.898450        51.6594 
 246   0.0000       1.901216        51.7347 
 247   0.0000       1.910746        51.9940 
 248   0.0000       1.911274        52.0084 
 249   0.0000       1.915644        52.1273 
 250   0.0000       1.950486        53.0754 
 251   0.0000       1.951250        53.0962 
 252   0.0000       1.952619        53.1335 
 253   0.0000       1.960136        53.3380 
 254   0.0000       1.960933        53.3597 
 255   0.0000       1.963960        53.4421 
 256   0.0000       1.964525        53.4575 
 257   0.0000       1.965016        53.4708 
 258   0.0000       1.968698        53.5710 
 259   0.0000       1.991172        54.1826 
 260   0.0000       1.992908        54.2298 
 261   0.0000       2.005789        54.5803 
 262   0.0000       2.007711        54.6326 
 263   0.0000       2.011374        54.7323 
 264   0.0000       2.012751        54.7697 
 265   0.0000       2.029418        55.2233 
 266   0.0000       2.029674        55.2302 
 267   0.0000       2.034731        55.3678 
 268   0.0000       2.046834        55.6972 
 269   0.0000       2.047787        55.7231 
 270   0.0000       2.064530        56.1787 
 271   0.0000       2.080673        56.6180 
 272   0.0000       2.082747        56.6744 
 273   0.0000       2.088487        56.8306 
 274   0.0000       2.091852        56.9222 
 275   0.0000       2.093173        56.9581 
 276   0.0000       2.104508        57.2666 
 277   0.0000       2.105155        57.2842 
 278   0.0000       2.120837        57.7109 
 279   0.0000       2.121743        57.7356 
 280   0.0000       2.123790        57.7913 
 281   0.0000       2.144719        58.3608 
 282   0.0000       2.146501        58.4093 
 283   0.0000       2.154537        58.6279 
 284   0.0000       2.155640        58.6579 
 285   0.0000       2.163195        58.8635 
 286   0.0000       2.171899        59.1004 
 287   0.0000       2.185607        59.4734 
 288   0.0000       2.186882        59.5081 
 289   0.0000       2.205861        60.0245 
 290   0.0000       2.215240        60.2797 
 291   0.0000       2.224641        60.5356 
 292   0.0000       2.225111        60.5483 
 293   0.0000       2.226413        60.5838 
 294   0.0000       2.227703        60.6189 
 295   0.0000       2.229472        60.6670 
 296   0.0000       2.230912        60.7062 
 297   0.0000       2.232129        60.7393 
 298   0.0000       2.232423        60.7473 
 299   0.0000       2.233000        60.7630 
 300   0.0000       2.233340        60.7723 
 301   0.0000       2.238919        60.9241 
 302   0.0000       2.240446        60.9656 
 303   0.0000       2.242002        61.0080 
 304   0.0000       2.243285        61.0429 
 305   0.0000       2.250935        61.2511 
 306   0.0000       2.251832        61.2755 
 307   0.0000       2.253252        61.3141 
 308   0.0000       2.254253        61.3413 
 309   0.0000       2.254291        61.3424 
 310   0.0000       2.264287        61.6144 
 311   0.0000       2.275335        61.9150 
 312   0.0000       2.276195        61.9384 
 313   0.0000       2.282213        62.1022 
 314   0.0000       2.295873        62.4739 
 315   0.0000       2.322258        63.1918 
 316   0.0000       2.322782        63.2061 
 317   0.0000       2.325946        63.2922 
 318   0.0000       2.327589        63.3369 
 319   0.0000       2.347545        63.8799 
 320   0.0000       2.363541        64.3152 
 321   0.0000       2.363974        64.3270 
 322   0.0000       2.364397        64.3385 
 323   0.0000       2.366082        64.3844 
 324   0.0000       2.379831        64.7585 
 325   0.0000       2.381510        64.8042 
 326   0.0000       2.386067        64.9282 
 327   0.0000       2.387305        64.9619 
 328   0.0000       2.395946        65.1970 
 329   0.0000       2.397439        65.2376 
 330   0.0000       2.421598        65.8950 
 331   0.0000       2.453247        66.7562 
 332   0.0000       2.454710        66.7961 
 333   0.0000       2.459864        66.9363 
 334   0.0000       2.471022        67.2399 
 335   0.0000       2.472275        67.2740 
 336   0.0000       2.476398        67.3862 
 337   0.0000       2.504691        68.1561 
 338   0.0000       2.506554        68.2068 
 339   0.0000       2.514547        68.4243 
 340   0.0000       2.515542        68.4514 
 341   0.0000       2.519649        68.5631 
 342   0.0000       2.522408        68.6382 
 343   0.0000       2.526193        68.7412 
 344   0.0000       2.527190        68.7683 
 345   0.0000       2.553133        69.4743 
 346   0.0000       2.555506        69.5388 
 347   0.0000       2.560113        69.6642 
 348   0.0000       2.577218        70.1297 
 349   0.0000       2.580244        70.2120 
 350   0.0000       2.585698        70.3604 
 351   0.0000       2.586094        70.3712 
 352   0.0000       2.600409        70.7607 
 353   0.0000       2.603250        70.8380 
 354   0.0000       2.618875        71.2632 
 355   0.0000       2.619906        71.2913 
 356   0.0000       2.652014        72.1650 
 357   0.0000       2.652274        72.1720 
 358   0.0000       2.663253        72.4708 
 359   0.0000       2.666924        72.5707 
 360   0.0000       2.690525        73.2129 
 361   0.0000       2.692686        73.2717 
 362   0.0000       2.695003        73.3348 
 363   0.0000       2.704695        73.5985 
 364   0.0000       2.709653        73.7334 
 365   0.0000       2.729647        74.2775 
 366   0.0000       2.756381        75.0049 
 367   0.0000       2.775507        75.5254 
 368   0.0000       2.787239        75.8446 
 369   0.0000       2.806632        76.3723 
 370   0.0000       2.808591        76.4257 
 371   0.0000       2.810945        76.4897 
 372   0.0000       2.811851        76.5144 
 373   0.0000       2.818684        76.7003 
 374   0.0000       2.875676        78.2511 
 375   0.0000       3.026912        82.3665 
 376   0.0000       3.030570        82.4660 
 377   0.0000       3.132441        85.2380 
 378   0.0000       3.132945        85.2518 
 379   0.0000       3.137223        85.3682 
 380   0.0000       3.137601        85.3785 
 381   0.0000       3.185264        86.6755 
 382   0.0000       3.189269        86.7844 
 383   0.0000       3.242805        88.2412 
 384   0.0000       3.248609        88.3991 
 385   0.0000       3.248997        88.4097 
 386   0.0000       3.251034        88.4651 
 387   0.0000       3.253376        88.5289 
 388   0.0000       3.297323        89.7247 
 389   0.0000       3.312098        90.1268 
 390   0.0000       3.396345        92.4192 
 391   0.0000       3.398925        92.4895 
 392   0.0000       3.441880        93.6583 
 393   0.0000       3.560921        96.8976 
 394   0.0000       3.565077        97.0107 
 395   0.0000       3.585502        97.5665 
 396   0.0000       3.586641        97.5975 
 397   0.0000       3.589797        97.6833 
 398   0.0000       3.590526        97.7032 
 399   0.0000       3.774183       102.7008 
 400   0.0000       3.774580       102.7115 
 401   0.0000       3.777255       102.7843 
 402   0.0000       3.777973       102.8039 
 403   0.0000       3.926088       106.8343 
 404   0.0000       3.930371       106.9508 
 405   0.0000       4.200531       114.3023 
 406   0.0000       4.203814       114.3916 
 407   0.0000       4.206631       114.4683 
 408   0.0000       4.207658       114.4962 
 409   0.0000       4.404874       119.8627 
 410   0.0000       4.409993       120.0020 
 411   0.0000       4.449890       121.0877 
 412   0.0000       4.452750       121.1655 
 413   0.0000       4.850036       131.9762 
 414   0.0000       4.850245       131.9819 
 415   0.0000       4.854978       132.1107 
 416   0.0000       4.855364       132.1212 
 417   0.0000       4.959139       134.9450 
 418   0.0000       4.960668       134.9866 
 419   0.0000       4.965991       135.1315 
 420   0.0000       4.967224       135.1650 
 421   0.0000       5.084704       138.3618 
 422   0.0000       5.094645       138.6323 
 423   0.0000       5.118848       139.2909 
 424   0.0000       5.120216       139.3282 
 425   0.0000       5.124733       139.4511 
 426   0.0000       5.125536       139.4729 
 427   0.0000       5.323371       144.8563 
 428   0.0000       5.331259       145.0709 
 429   0.0000       5.527131       150.4009 
 430   0.0000       5.528442       150.4366 
 431   0.0000       5.533763       150.5813 
 432   0.0000       5.534081       150.5900 
 433   0.0000       5.858691       159.4231 
 434   0.0000       5.862925       159.5383 
 435   0.0000      11.030911       300.1664 
 436   0.0000      11.031264       300.1760 
 437   0.0000      11.055644       300.8394 
 438   0.0000      11.081435       301.5412 
 439   0.0000      11.085109       301.6411 
 440   0.0000      11.085529       301.6526 
 441   0.0000      11.088394       301.7306 
 442   0.0000      11.105176       302.1872 
 443   0.0000      11.126080       302.7560 
 444   0.0000      11.126409       302.7650 
 445   0.0000      11.131246       302.8966 
 446   0.0000      11.158808       303.6466 
 447   0.0000      11.159497       303.6654 
 448   0.0000      11.165776       303.8362 
 449   0.0000      11.166028       303.8431 
 450   0.0000      11.229326       305.5655 
 451   0.0000      11.231064       305.6128 
 452   0.0000      11.279341       306.9265 
 453   0.0000      22.660687       616.6286 
 454   0.0000      22.666062       616.7749 
 455   0.0000      25.348385       689.7646 
 456   0.0000      25.358948       690.0520 
 457   0.0000      25.377100       690.5460 
 458   0.0000      25.383253       690.7134 
 459   0.0000      25.484808       693.4769 
 460   0.0000      25.631533       697.4695 
 461   0.0000      32.375456       880.9809 
 462   0.0000      32.391177       881.4087 
 463   0.0000      35.686660       971.0834 
 464   0.0000      35.805349       974.3131 
 465   0.0000      35.806425       974.3423 
 466   0.0000      35.920565       977.4483 
 467   0.0000     123.607940      3363.5430 

                    ********************************
                    * MULLIKEN POPULATION ANALYSIS *
                    ********************************

-----------------------
MULLIKEN ATOMIC CHARGES
-----------------------
   0 C :   -0.254898
   1 N :   -0.286621
   2 H :    0.156947
   3 H :    0.157493
   4 H :    0.157907
   5 H :    0.281069
   6 H :    0.280099
   7 H :    0.278572
   8 Pb:    1.166523
   9 Cl:   -0.452347
  10 Cl:   -0.453292
  11 Cl:   -0.450598
  12 Cl:   -0.455378
  13 Cl:   -0.450646
  14 Cl:   -0.450764
  15 N :   -0.285808
  16 C :   -0.254871
  17 H :    0.281005
  18 H :    0.281873
  19 H :    0.159098
  20 H :    0.158511
  21 H :    0.157811
  22 H :    0.278317
Sum of atomic charges:   -0.0000000

--------------------------------
MULLIKEN REDUCED ORBITAL CHARGES
--------------------------------
  0 C s       :     3.273948  s :     3.273948
      pz      :     1.004886  p :     2.905614
      px      :     0.983538
      py      :     0.917190
      dz2     :     0.006148  d :     0.069346
      dxz     :     0.018324
      dyz     :     0.017724
      dx2y2   :     0.008823
      dxy     :     0.018326
      f0      :     0.000304  f :     0.005991
      f+1     :     0.000534
      f-1     :     0.000688
      f+2     :     0.000608
      f-2     :     0.002517
      f+3     :     0.000626
      f-3     :     0.000713
  1 N s       :     3.409025  s :     3.409025
      pz      :     1.287308  p :     3.829133
      px      :     1.281118
      py      :     1.260707
      dz2     :     0.004097  d :     0.046305
      dxz     :     0.012391
      dyz     :     0.011548
      dx2y2   :     0.006622
      dxy     :     0.011646
      f0      :     0.000111  f :     0.002159
      f+1     :     0.000185
      f-1     :     0.000187
      f+2     :     0.000192
      f-2     :     0.001083
      f+3     :     0.000201
      f-3     :     0.000200
  2 H s       :     0.821345  s :     0.821345
      pz      :     0.008539  p :     0.021708
      px      :     0.008040
      py      :     0.005129
  3 H s       :     0.820799  s :     0.820799
      pz      :     0.006646  p :     0.021709
      px      :     0.007021
      py      :     0.008043
  4 H s       :     0.820380  s :     0.820380
      pz      :     0.007720  p :     0.021714
      px      :     0.007134
      py      :     0.006860
  5 H s       :     0.677795  s :     0.677795
      pz      :     0.010648  p :     0.041136
      px      :     0.014908
      py      :     0.015580
  6 H s       :     0.678726  s :     0.678726
      pz      :     0.013508  p :     0.041175
      px      :     0.009627
      py      :     0.018040
  7 H s       :     0.679754  s :     0.679754
      pz      :     0.017610  p :     0.041674
      px      :     0.017001
      py      :     0.007063
  8 Pbs       :     3.235336  s :     3.235336
      pz      :     2.410071  p :     7.230361
      px      :     2.410063
      py      :     2.410226
      dz2     :     2.058789  d :    10.247588
      dxz     :     2.040286
      dyz     :     2.043369
      dx2y2   :     2.062506
      dxy     :     2.042638
      f0      :     0.027627  f :     0.120192
      f+1     :     0.017551
      f-1     :     0.018694
      f+2     :     0.012177
      f-2     :     0.001097
      f+3     :     0.021615
      f-3     :     0.021431
  9 Cls       :     5.962716  s :     5.962716
      pz      :     3.945149  p :    11.471837
      px      :     3.599321
      py      :     3.927368
      dz2     :     0.003086  d :     0.016960
      dxz     :     0.001867
      dyz     :     0.001689
      dx2y2   :     0.008497
      dxy     :     0.001821
      f0      :     0.000071  f :     0.000834
      f+1     :     0.000208
      f-1     :     0.000032
      f+2     :     0.000102
      f-2     :     0.000013
      f+3     :     0.000299
      f-3     :     0.000110
 10 Cls       :     5.962771  s :     5.962771
      pz      :     3.934129  p :    11.472670
      px      :     3.937587
      py      :     3.600953
      dz2     :     0.003097  d :     0.017019
      dxz     :     0.002014
      dyz     :     0.002394
      dx2y2   :     0.007604
      dxy     :     0.001910
      f0      :     0.000070  f :     0.000832
      f+1     :     0.000046
      f-1     :     0.000169
      f+2     :     0.000124
      f-2     :     0.000020
      f+3     :     0.000115
      f-3     :     0.000289
 11 Cls       :     5.962769  s :     5.962769
      pz      :     3.602720  p :    11.469841
      px      :     3.941378
      py      :     3.925743
      dz2     :     0.010695  d :     0.017140
      dxz     :     0.001956
      dyz     :     0.002097
      dx2y2   :     0.000699
      dxy     :     0.001692
      f0      :     0.000462  f :     0.000848
      f+1     :     0.000122
      f-1     :     0.000158
      f+2     :     0.000023
      f-2     :     0.000018
      f+3     :     0.000040
      f-3     :     0.000025
 12 Cls       :     5.963021  s :     5.963021
      pz      :     3.945982  p :    11.475172
      px      :     3.599398
      py      :     3.929792
      dz2     :     0.003013  d :     0.016381
      dxz     :     0.001785
      dyz     :     0.001534
      dx2y2   :     0.008300
      dxy     :     0.001749
      f0      :     0.000067  f :     0.000805
      f+1     :     0.000203
      f-1     :     0.000028
      f+2     :     0.000094
      f-2     :     0.000012
      f+3     :     0.000295
      f-3     :     0.000104
 13 Cls       :     5.962897  s :     5.962897
      pz      :     3.599821  p :    11.469901
      px      :     3.942232
      py      :     3.927848
      dz2     :     0.010752  d :     0.016997
      dxz     :     0.001960
      dyz     :     0.002078
      dx2y2   :     0.000686
      dxy     :     0.001521
      f0      :     0.000474  f :     0.000851
      f+1     :     0.000125
      f-1     :     0.000158
      f+2     :     0.000023
      f-2     :     0.000016
      f+3     :     0.000034
      f-3     :     0.000022
 14 Cls       :     5.962834  s :     5.962834
      pz      :     3.933255  p :    11.469966
      px      :     3.936736
      py      :     3.599975
      dz2     :     0.003112  d :     0.017121
      dxz     :     0.001944
      dyz     :     0.002456
      dx2y2   :     0.007678
      dxy     :     0.001931
      f0      :     0.000071  f :     0.000843
      f+1     :     0.000043
      f-1     :     0.000172
      f+2     :     0.000125
      f-2     :     0.000019
      f+3     :     0.000118
      f-3     :     0.000295
 15 N s       :     3.409308  s :     3.409308
      pz      :     1.288099  p :     3.827939
      px      :     1.282672
      py      :     1.257168
      dz2     :     0.004074  d :     0.046400
      dxz     :     0.012383
      dyz     :     0.011487
      dx2y2   :     0.006731
      dxy     :     0.011726
      f0      :     0.000110  f :     0.002162
      f+1     :     0.000191
      f-1     :     0.000191
      f+2     :     0.000195
      f-2     :     0.001056
      f+3     :     0.000210
      f-3     :     0.000208
 16 C s       :     3.274265  s :     3.274265
      pz      :     1.009245  p :     2.905437
      px      :     0.989166
      py      :     0.907026
      dz2     :     0.006173  d :     0.069176
      dxz     :     0.018183
      dyz     :     0.017501
      dx2y2   :     0.008969
      dxy     :     0.018350
      f0      :     0.000304  f :     0.005993
      f+1     :     0.000536
      f-1     :     0.000704
      f+2     :     0.000608
      f-2     :     0.002455
      f+3     :     0.000644
      f-3     :     0.000743
 17 H s       :     0.678582  s :     0.678582
      pz      :     0.012977  p :     0.040414
      px      :     0.009774
      py      :     0.017663
 18 H s       :     0.677896  s :     0.677896
      pz      :     0.010697  p :     0.040231
      px      :     0.014443
      py      :     0.015091
 19 H s       :     0.819172  s :     0.819172
      pz      :     0.007845  p :     0.021730
      px      :     0.007090
      py      :     0.006794
 20 H s       :     0.819769  s :     0.819769
      pz      :     0.006466  p :     0.021720
      px      :     0.007206
      py      :     0.008048
 21 H s       :     0.820476  s :     0.820476
      pz      :     0.008738  p :     0.021712
      px      :     0.008096
      py      :     0.004877
 22 H s       :     0.680501  s :     0.680501
      pz      :     0.017604  p :     0.041182
      px      :     0.016790
      py      :     0.006788


                     *******************************
                     * LOEWDIN POPULATION ANALYSIS *
                     *******************************

----------------------
LOEWDIN ATOMIC CHARGES
----------------------
   0 C :   -0.277050
   1 N :    0.083121
   2 H :    0.124405
   3 H :    0.124501
   4 H :    0.124647
   5 H :    0.163200
   6 H :    0.163175
   7 H :    0.161815
   8 Pb:   -0.455180
   9 Cl:   -0.149780
  10 Cl:   -0.149691
  11 Cl:   -0.145194
  12 Cl:   -0.159394
  13 Cl:   -0.146303
  14 Cl:   -0.146235
  15 N :    0.086563
  16 C :   -0.275645
  17 H :    0.166607
  18 H :    0.167203
  19 H :    0.125186
  20 H :    0.124994
  21 H :    0.124670
  22 H :    0.164387

-------------------------------
LOEWDIN REDUCED ORBITAL CHARGES
-------------------------------
  0 C s       :     2.853694  s :     2.853694
      pz      :     1.051171  p :     3.083351
      px      :     1.037486
      py      :     0.994694
      dz2     :     0.026153  d :     0.303064
      dxz     :     0.077846
      dyz     :     0.078627
      dx2y2   :     0.037520
      dxy     :     0.082918
      f0      :     0.004638  f :     0.036941
      f+1     :     0.003894
      f-1     :     0.005895
      f+2     :     0.003649
      f-2     :     0.006781
      f+3     :     0.005561
      f-3     :     0.006523
  1 N s       :     2.999911  s :     2.999911
      pz      :     1.253684  p :     3.751835
      px      :     1.251975
      py      :     1.246176
      dz2     :     0.014172  d :     0.155788
      dxz     :     0.040981
      dyz     :     0.038951
      dx2y2   :     0.021979
      dxy     :     0.039706
      f0      :     0.001238  f :     0.009345
      f+1     :     0.001127
      f-1     :     0.001466
      f+2     :     0.000952
      f-2     :     0.001614
      f+3     :     0.001306
      f-3     :     0.001642
  2 H s       :     0.813481  s :     0.813481
      pz      :     0.023666  p :     0.062115
      px      :     0.022263
      py      :     0.016186
  3 H s       :     0.813364  s :     0.813364
      pz      :     0.018919  p :     0.062135
      px      :     0.021417
      py      :     0.021798
  4 H s       :     0.813208  s :     0.813208
      pz      :     0.023279  p :     0.062145
      px      :     0.020000
      py      :     0.018866
  5 H s       :     0.713891  s :     0.713891
      pz      :     0.035528  p :     0.122908
      px      :     0.043102
      py      :     0.044279
  6 H s       :     0.713807  s :     0.713807
      pz      :     0.039167  p :     0.123019
      px      :     0.032136
      py      :     0.051716
  7 H s       :     0.714014  s :     0.714014
      pz      :     0.051547  p :     0.124172
      px      :     0.049332
      py      :     0.023293
  8 Pbs       :     3.064889  s :     3.064889
      pz      :     2.618495  p :     7.848797
      px      :     2.615431
      py      :     2.614871
      dz2     :     2.405981  d :    11.241812
      dxz     :     2.135371
      dyz     :     2.154519
      dx2y2   :     2.409940
      dxy     :     2.136000
      f0      :     0.071874  f :     0.299683
      f+1     :     0.042935
      f-1     :     0.045945
      f+2     :     0.027686
      f-2     :     0.002393
      f+3     :     0.054769
      f-3     :     0.054081
  9 Cls       :     5.764048  s :     5.764048
      pz      :     3.900531  p :    11.358853
      px      :     3.579582
      py      :     3.878740
      dz2     :     0.004810  d :     0.025519
      dxz     :     0.001842
      dyz     :     0.002808
      dx2y2   :     0.014170
      dxy     :     0.001889
      f0      :     0.000075  f :     0.001360
      f+1     :     0.000361
      f-1     :     0.000051
      f+2     :     0.000172
      f-2     :     0.000012
      f+3     :     0.000545
      f-3     :     0.000144
 10 Cls       :     5.763882  s :     5.763882
      pz      :     3.886913  p :    11.358779
      px      :     3.890308
      py      :     3.581557
      dz2     :     0.004633  d :     0.025666
      dxz     :     0.003122
      dyz     :     0.003065
      dx2y2   :     0.012619
      dxy     :     0.002226
      f0      :     0.000086  f :     0.001364
      f+1     :     0.000092
      f-1     :     0.000294
      f+2     :     0.000206
      f-2     :     0.000034
      f+3     :     0.000131
      f-3     :     0.000520
 11 Cls       :     5.762533  s :     5.762533
      pz      :     3.582616  p :    11.355435
      px      :     3.894738
      py      :     3.878081
      dz2     :     0.017755  d :     0.025841
      dxz     :     0.001939
      dyz     :     0.002399
      dx2y2   :     0.000854
      dxy     :     0.002893
      f0      :     0.000835  f :     0.001384
      f+1     :     0.000143
      f-1     :     0.000227
      f+2     :     0.000029
      f-2     :     0.000019
      f+3     :     0.000084
      f-3     :     0.000048
 12 Cls       :     5.768783  s :     5.768783
      pz      :     3.902990  p :    11.364931
      px      :     3.579100
      py      :     3.882841
      dz2     :     0.004680  d :     0.024395
      dxz     :     0.001743
      dyz     :     0.002475
      dx2y2   :     0.013701
      dxy     :     0.001796
      f0      :     0.000069  f :     0.001284
      f+1     :     0.000348
      f-1     :     0.000045
      f+2     :     0.000151
      f-2     :     0.000011
      f+3     :     0.000529
      f-3     :     0.000131
 13 Cls       :     5.762818  s :     5.762818
      pz      :     3.579883  p :    11.356614
      px      :     3.896084
      py      :     3.880646
      dz2     :     0.017833  d :     0.025499
      dxz     :     0.001951
      dyz     :     0.002351
      dx2y2   :     0.000840
      dxy     :     0.002524
      f0      :     0.000857  f :     0.001373
      f+1     :     0.000141
      f-1     :     0.000219
      f+2     :     0.000028
      f-2     :     0.000016
      f+3     :     0.000070
      f-3     :     0.000040
 14 Cls       :     5.762306  s :     5.762306
      pz      :     3.886140  p :    11.356746
      px      :     3.889760
      py      :     3.580846
      dz2     :     0.004663  d :     0.025802
      dxz     :     0.002947
      dyz     :     0.003159
      dx2y2   :     0.012791
      dxy     :     0.002243
      f0      :     0.000089  f :     0.001380
      f+1     :     0.000085
      f-1     :     0.000300
      f+2     :     0.000205
      f-2     :     0.000032
      f+3     :     0.000134
      f-3     :     0.000534
 15 N s       :     2.999359  s :     2.999359
      pz      :     1.252970  p :     3.749037
      px      :     1.251537
      py      :     1.244529
      dz2     :     0.014117  d :     0.155718
      dxz     :     0.040781
      dyz     :     0.038620
      dx2y2   :     0.022383
      dxy     :     0.039817
      f0      :     0.001201  f :     0.009323
      f+1     :     0.001103
      f-1     :     0.001513
      f+2     :     0.000952
      f-2     :     0.001578
      f+3     :     0.001282
      f-3     :     0.001695
 16 C s       :     2.853791  s :     2.853791
      pz      :     1.053763  p :     3.082778
      px      :     1.040952
      py      :     0.988063
      dz2     :     0.026259  d :     0.302167
      dxz     :     0.076896
      dyz     :     0.077703
      dx2y2   :     0.038416
      dxy     :     0.082892
      f0      :     0.004531  f :     0.036909
      f+1     :     0.003712
      f-1     :     0.006080
      f+2     :     0.003643
      f-2     :     0.006670
      f+3     :     0.005562
      f-3     :     0.006711
 17 H s       :     0.712878  s :     0.712878
      pz      :     0.037489  p :     0.120516
      px      :     0.032649
      py      :     0.050378
 18 H s       :     0.712847  s :     0.712847
      pz      :     0.035660  p :     0.119950
      px      :     0.041647
      py      :     0.042643
 19 H s       :     0.812611  s :     0.812611
      pz      :     0.023621  p :     0.062203
      px      :     0.019937
      py      :     0.018646
 20 H s       :     0.812817  s :     0.812817
      pz      :     0.018512  p :     0.062189
      px      :     0.021925
      py      :     0.021751
 21 H s       :     0.813169  s :     0.813169
      pz      :     0.024208  p :     0.062161
      px      :     0.022457
      py      :     0.015496
 22 H s       :     0.713048  s :     0.713048
      pz      :     0.051566  p :     0.122565
      px      :     0.048708
      py      :     0.022291


                      *****************************
                      * MAYER POPULATION ANALYSIS *
                      *****************************

  NA   - Mulliken gross atomic population
  ZA   - Total nuclear charge
  QA   - Mulliken gross atomic charge
  VA   - Mayer's total valence
  BVA  - Mayer's bonded valence
  FA   - Mayer's free valence

  ATOM       NA         ZA         QA         VA         BVA        FA
  0 C      6.2549     6.0000    -0.2549     3.8405     3.8405    -0.0000
  1 N      7.2866     7.0000    -0.2866     3.3169     3.3169    -0.0000
  2 H      0.8431     1.0000     0.1569     0.9615     0.9615    -0.0000
  3 H      0.8425     1.0000     0.1575     0.9612     0.9612    -0.0000
  4 H      0.8421     1.0000     0.1579     0.9611     0.9611    -0.0000
  5 H      0.7189     1.0000     0.2811     0.9811     0.9811     0.0000
  6 H      0.7199     1.0000     0.2801     0.9829     0.9829     0.0000
  7 H      0.7214     1.0000     0.2786     0.9845     0.9845     0.0000
  8 Pb    20.8335    22.0000     1.1665     3.6806     3.6806    -0.0000
  9 Cl    17.4523    17.0000    -0.4523     0.8935     0.8935    -0.0000
 10 Cl    17.4533    17.0000    -0.4533     0.8921     0.8921     0.0000
 11 Cl    17.4506    17.0000    -0.4506     0.8948     0.8948     0.0000
 12 Cl    17.4554    17.0000    -0.4554     0.8887     0.8887    -0.0000
 13 Cl    17.4506    17.0000    -0.4506     0.8937     0.8937    -0.0000
 14 Cl    17.4508    17.0000    -0.4508     0.8964     0.8964     0.0000
 15 N      7.2858     7.0000    -0.2858     3.3248     3.3248    -0.0000
 16 C      6.2549     6.0000    -0.2549     3.8375     3.8375     0.0000
 17 H      0.7190     1.0000     0.2810     0.9821     0.9821     0.0000
 18 H      0.7181     1.0000     0.2819     0.9795     0.9795    -0.0000
 19 H      0.8409     1.0000     0.1591     0.9610     0.9610    -0.0000
 20 H      0.8415     1.0000     0.1585     0.9610     0.9610     0.0000
 21 H      0.8422     1.0000     0.1578     0.9612     0.9612     0.0000
 22 H      0.7217     1.0000     0.2783     0.9857     0.9857    -0.0000

  Mayer bond orders larger than 0.1
B(  0-C ,  1-N ) :   0.9085 B(  0-C ,  2-H ) :   0.9703 B(  0-C ,  3-H ) :   0.9698 
B(  0-C ,  4-H ) :   0.9697 B(  1-N ,  5-H ) :   0.8282 B(  1-N ,  6-H ) :   0.8268 
B(  1-N ,  7-H ) :   0.8261 B(  5-H , 11-Cl) :   0.1498 B(  6-H ,  9-Cl) :   0.1535 
B(  7-H , 10-Cl) :   0.1554 B(  8-Pb,  9-Cl) :   0.6123 B(  8-Pb, 10-Cl) :   0.6085 
B(  8-Pb, 11-Cl) :   0.6138 B(  8-Pb, 12-Cl) :   0.6097 B(  8-Pb, 13-Cl) :   0.6177 
B(  8-Pb, 14-Cl) :   0.6124 B( 12-Cl, 17-H ) :   0.1489 B( 13-Cl, 18-H ) :   0.1434 
B( 14-Cl, 22-H ) :   0.1572 B( 15-N , 16-C ) :   0.9081 B( 15-N , 17-H ) :   0.8298 
B( 15-N , 18-H ) :   0.8321 B( 15-N , 22-H ) :   0.8262 B( 16-C , 19-H ) :   0.9693 
B( 16-C , 20-H ) :   0.9694 B( 16-C , 21-H ) :   0.9698 

-------
TIMINGS
-------

Total SCF time: 0 days 0 hours 6 min 39 sec 

Total time                  ....     399.985 sec
Sum of individual times     ....     328.713 sec  ( 82.2%)

Fock matrix formation       ....     314.277 sec  ( 78.6%)
  Coulomb formation         ....     266.108 sec  ( 84.7% of F)
  Split-RI-J                ....      19.125 sec  (  6.1% of F)
  Chain of spheres X        ....     315.788 sec  (100.5% of F)
  COS-X 1 center corr.      ....       0.000 sec  (  0.0% of F)
  XC integration            ....      48.295 sec  ( 15.4% of F)
    Basis function eval.    ....      25.162 sec  ( 52.1% of XC)
    Density eval.           ....      10.801 sec  ( 22.4% of XC)
    XC-Functional eval.     ....       2.138 sec  (  4.4% of XC)
    XC-Potential eval.      ....       9.217 sec  ( 19.1% of XC)
Diagonalization             ....       0.254 sec  (  0.1%)
Density matrix formation    ....       0.107 sec  (  0.0%)
Population analysis         ....       0.413 sec  (  0.1%)
Initial guess               ....       0.827 sec  (  0.2%)
Orbital Transformation      ....       0.000 sec  (  0.0%)
Orbital Orthonormalization  ....       0.812 sec  (  0.2%)
DIIS solution               ....       0.060 sec  (  0.0%)
SOSCF solution              ....       0.463 sec  (  0.1%)
Grid generation             ....      12.312 sec  (  3.1%)

------------------------------------------------------------------------------
                              ORCA MP2 CALCULATION
------------------------------------------------------------------------------


----------------------
RI-MP2 ENERGY+GRADIENT
----------------------
Dimension of the basis                    ...  468
Memory devoted to MP2                     ... 1000 MB   
Data format for buffers                   ... DOUBLE
Compression type for matrix containers    ... UNCOMPRESSED
Overall scaling of the MP2 energy         ...   2.700e-01 Eh
Calculating two index integrals           ... done (    0.020 sec)
Cholesky decomposition of the V-matrix    ... done
Cholesky decomposition of V**-1           ... done (    0.081 sec)

-----------------
RI-TRANSFORMATION (AUX index driven)
-----------------

Dimension of the orbital-basis         ... 468
Dimension of the aux-basis             ... 810
Transformation of internal MOs         ...    0-  80
Transformation of internal/external MOs...    0-  80 to   81- 467
Number Format for Storage              ... Double (8 Byte)
Integral mode                          ... Direct

First Phase: integral generation and transformation of MO indices
  Aux angular momentum 0               ... done (    2.042 sec)
  Aux angular momentum 1               ... done (    1.933 sec)
  Aux angular momentum 2               ... done (    2.407 sec)
  Aux angular momentum 3               ... done (    1.146 sec)
  Aux angular momentum 4               ... done (    1.090 sec)
Closing buffer VIJ ( 0.02 GB; CompressionRatio= 1.97)
Closing buffer VIA ( 0.19 GB; CompressionRatio= 1.00)
  Phase 1 completed in     8.730 sec
Second Phase: sorting and transformation of aux index

IJ-Transformation
Memory available                       ... 972 MB 
Max. # MO pairs treated in a batch     ... 81    
# of internal orbitals                 ... 81
# batches for internal orbitals        ... 1
Closing buffer IJV ( 0.02 GB; CompressionRatio= 1.00)
(ij|v) transformation done in     0.664 sec

IA-Transformation
Memory available                       ... 972 MB 
Max. # MO pairs treated in a batch     ... 81    
# of internal orbitals                 ... 81
# batches for internal orbitals        ... 1
Closing buffer IAV ( 0.19 GB; CompressionRatio= 1.00)
(ia|v) transformation done in     2.678 sec

  Phase 2 completed in     4.195 sec
RI-Integral transformation completed in    12.927 sec
Opening buffers                              ... done

Starting loop over batches of integrals:

Operator 0  - window                       ... (  0- 80)x( 81-467)
Operator 0  - Memory available             ...  1000 MB
Operator 0  - Memory needed per MO         ...   4.8 MB
Operator 0  - Number of orbitals per batch ... 81
Operator 0  - Number of batches            ... 1

OPERATOR  0   PASS   0:  MOs     0 ...   80
  Reading integrals       ... ok
  Internal MO   2
  Internal MO   5
  Internal MO   8
  Internal MO  11
  Internal MO  14
  Internal MO  17
  Internal MO  20
  Internal MO  23
  Internal MO  26
  Internal MO  29
  Internal MO  32
  Internal MO  35
  Internal MO  38
  Internal MO  41
  Internal MO  44
  Internal MO  47
  Internal MO  50
  Internal MO  53
  Internal MO  56
  Internal MO  59
  Internal MO  62
  Internal MO  65
  Internal MO  68
  Internal MO  71
  Internal MO  74
  Internal MO  77
  Internal MO  80
Closing buffer GIPV ( 0.23 GB; CompressionRatio= 1.00)
Time spent in pair loops =   704.098 sec

-----------------------------------------------
 RI-MP2 CORRELATION ENERGY:     -1.010924301 Eh
-----------------------------------------------


---------------------
MP2 DENSITY FORMATION
---------------------

Completing the external part of the density      ... done
Storing the unrelaxed density                    ... done

Calculating the xc-kernel                        ... done
Calculating G(D)                                 ... done
Completing the Lagrangian                        ... done
Solving the Z-vector equations                   ... 

------------------------------------------------------------------------------
                           ORCA CP-SCF CALCULATION
------------------------------------------------------------------------------

Input orbitals are from        ... PbCl6_MA2_mp2_sp_1.orca.gbw
Input Perturbation             ... PbCl6_MA2_mp2_sp_1.orca.pin.tmp
Wavefunction output            ... PbCl6_MA2_mp2_sp_1.orca.pout.tmp
Perturbation mode              ... Real perturbation
Solver                         ... POPLE
Max. number of iterations      ... 128
Convergence tolerance          ... 1.000e-08
Integral handling              ... Direct
COSX GridX                     ... 1
[...]
      pz      :     0.008858  p :     0.022349
      px      :     0.008257
      py      :     0.005234
 22 H s       :     0.687026  s :     0.687026
      pz      :     0.017529  p :     0.041332
      px      :     0.016758
      py      :     0.007044


                     *******************************
                     * LOEWDIN POPULATION ANALYSIS *
                     *******************************

----------------------
LOEWDIN ATOMIC CHARGES
----------------------
   0 C :   -0.289603
   1 N :    0.077990
   2 H :    0.127244
   3 H :    0.127339
   4 H :    0.127481
   5 H :    0.160939
   6 H :    0.160887
   7 H :    0.159505
   8 Pb:   -0.534235
   9 Cl:   -0.131210
  10 Cl:   -0.131162
  11 Cl:   -0.126878
  12 Cl:   -0.140309
  13 Cl:   -0.128011
  14 Cl:   -0.127989
  15 N :    0.081458
  16 C :   -0.288155
  17 H :    0.164318
  18 H :    0.164970
  19 H :    0.128017
  20 H :    0.127834
  21 H :    0.127506
  22 H :    0.162064

-------------------------------
LOEWDIN REDUCED ORBITAL CHARGES
-------------------------------
  0 C s       :     2.854343  s :     2.854343
      pz      :     1.052917  p :     3.089377
      px      :     1.039387
      py      :     0.997073
      dz2     :     0.028102  d :     0.307410
      dxz     :     0.078071
      dyz     :     0.078849
      dx2y2   :     0.039427
      dxy     :     0.082962
      f0      :     0.004848  f :     0.038472
      f+1     :     0.004095
      f-1     :     0.006086
      f+2     :     0.003834
      f-2     :     0.007130
      f+3     :     0.005765
      f-3     :     0.006715
  1 N s       :     3.001344  s :     3.001344
      pz      :     1.251083  p :     3.742812
      px      :     1.249135
      py      :     1.242594
      dz2     :     0.016415  d :     0.167097
      dxz     :     0.043258
      dyz     :     0.041195
      dx2y2   :     0.024290
      dxy     :     0.041939
      f0      :     0.001432  f :     0.010757
      f+1     :     0.001308
      f-1     :     0.001645
      f+2     :     0.001133
      f-2     :     0.001904
      f+3     :     0.001506
      f-3     :     0.001828
  2 H s       :     0.808712  s :     0.808712
      pz      :     0.024299  p :     0.064044
      px      :     0.022899
      py      :     0.016847
  3 H s       :     0.808598  s :     0.808598
      pz      :     0.019538  p :     0.064063
      px      :     0.022072
      py      :     0.022454
  4 H s       :     0.808447  s :     0.808447
      pz      :     0.023931  p :     0.064072
      px      :     0.020628
      py      :     0.019513
  5 H s       :     0.714868  s :     0.714868
      pz      :     0.035934  p :     0.124193
      px      :     0.043539
      py      :     0.044720
  6 H s       :     0.714809  s :     0.714809
      pz      :     0.039603  p :     0.124304
      px      :     0.032545
      py      :     0.052156
  7 H s       :     0.715050  s :     0.715050
      pz      :     0.051973  p :     0.125445
      px      :     0.049761
      py      :     0.023711
  8 Pbs       :     3.130006  s :     3.130006
      pz      :     2.627181  p :     7.875783
      px      :     2.624648
      py      :     2.623954
      dz2     :     2.389070  d :    11.197331
      dxz     :     2.132359
      dyz     :     2.150393
      dx2y2   :     2.392805
      dxy     :     2.132704
      f0      :     0.075724  f :     0.331114
      f+1     :     0.047515
      f-1     :     0.050431
      f+2     :     0.032754
      f-2     :     0.007325
      f+3     :     0.059039
      f-3     :     0.058326
  9 Cls       :     5.762967  s :     5.762967
      pz      :     3.881845  p :    11.298808
      px      :     3.557957
      py      :     3.859005
      dz2     :     0.012698  d :     0.065242
      dxz     :     0.009747
      dyz     :     0.010790
      dx2y2   :     0.022162
      dxy     :     0.009844
      f0      :     0.000466  f :     0.004193
      f+1     :     0.000777
      f-1     :     0.000435
      f+2     :     0.000579
      f-2     :     0.000398
      f+3     :     0.000984
      f-3     :     0.000554
 10 Cls       :     5.762805  s :     5.762805
      pz      :     3.867550  p :    11.298746
      px      :     3.871044
      py      :     3.560153
      dz2     :     0.012565  d :     0.065412
      dxz     :     0.011092
      dyz     :     0.010971
      dx2y2   :     0.020630
      dxy     :     0.010154
      f0      :     0.000479  f :     0.004199
      f+1     :     0.000482
      f-1     :     0.000709
      f+2     :     0.000614
      f-2     :     0.000423
      f+3     :     0.000537
      f-3     :     0.000954
 11 Cls       :     5.761447  s :     5.761447
      pz      :     3.561271  p :    11.295649
      px      :     3.875740
      py      :     3.858637
      dz2     :     0.025713  d :     0.065562
      dxz     :     0.009846
      dyz     :     0.010371
      dx2y2   :     0.008748
      dxy     :     0.010883
      f0      :     0.001300  f :     0.004220
      f+1     :     0.000552
      f-1     :     0.000644
      f+2     :     0.000416
      f-2     :     0.000407
      f+3     :     0.000471
      f-3     :     0.000431
 12 Cls       :     5.767669  s :     5.767669
      pz      :     3.884351  p :    11.304508
      px      :     3.556981
      py      :     3.863176
      dz2     :     0.012553  d :     0.064028
      dxz     :     0.009637
      dyz     :     0.010434
      dx2y2   :     0.021666
      dxy     :     0.009737
      f0      :     0.000458  f :     0.004104
      f+1     :     0.000762
      f-1     :     0.000428
      f+2     :     0.000556
      f-2     :     0.000396
      f+3     :     0.000965
      f-3     :     0.000539
 13 Cls       :     5.761719  s :     5.761719
      pz      :     3.558589  p :    11.296919
      px      :     3.877098
      py      :     3.861232
      dz2     :     0.025778  d :     0.065168
      dxz     :     0.009855
      dyz     :     0.010317
      dx2y2   :     0.008725
      dxy     :     0.010493
      f0      :     0.001323  f :     0.004205
      f+1     :     0.000551
      f-1     :     0.000635
      f+2     :     0.000416
      f-2     :     0.000403
      f+3     :     0.000455
      f-3     :     0.000422
 14 Cls       :     5.761226  s :     5.761226
      pz      :     3.866759  p :    11.297037
      px      :     3.870463
      py      :     3.559815
      dz2     :     0.012587  d :     0.065512
      dxz     :     0.010903
      dyz     :     0.011058
      dx2y2   :     0.020800
      dxy     :     0.010165
      f0      :     0.000482  f :     0.004215
      f+1     :     0.000474
      f-1     :     0.000715
      f+2     :     0.000614
      f-2     :     0.000421
      f+3     :     0.000540
      f-3     :     0.000969
 15 N s       :     3.000743  s :     3.000743
      pz      :     1.250465  p :     3.740160
      px      :     1.248805
      py      :     1.240889
      dz2     :     0.016345  d :     0.166912
      dxz     :     0.043022
      dyz     :     0.040840
      dx2y2   :     0.024680
      dxy     :     0.042024
      f0      :     0.001394  f :     0.010728
      f+1     :     0.001285
      f-1     :     0.001691
      f+2     :     0.001134
      f-2     :     0.001862
      f+3     :     0.001483
      f-3     :     0.001879
 16 C s       :     2.854435  s :     2.854435
      pz      :     1.055471  p :     3.088807
      px      :     1.042808
      py      :     0.990529
      dz2     :     0.028171  d :     0.306475
      dxz     :     0.077139
      dyz     :     0.077952
      dx2y2   :     0.040280
      dxy     :     0.082933
      f0      :     0.004739  f :     0.038437
      f+1     :     0.003916
      f-1     :     0.006271
      f+2     :     0.003831
      f-2     :     0.007012
      f+3     :     0.005767
      f-3     :     0.006902
 17 H s       :     0.713884  s :     0.713884
      pz      :     0.037927  p :     0.121798
      px      :     0.033048
      py      :     0.050823
 18 H s       :     0.713789  s :     0.713789
      pz      :     0.036059  p :     0.121241
      px      :     0.042090
      py      :     0.043092
 19 H s       :     0.807861  s :     0.807861
      pz      :     0.024270  p :     0.064121
      px      :     0.020559
      py      :     0.019292
 20 H s       :     0.808057  s :     0.808057
      pz      :     0.019125  p :     0.064109
      px      :     0.022578
      py      :     0.022406
 21 H s       :     0.808410  s :     0.808410
      pz      :     0.024838  p :     0.064084
      px      :     0.023088
      py      :     0.016157
 22 H s       :     0.714089  s :     0.714089
      pz      :     0.051998  p :     0.123846
      px      :     0.049145
      py      :     0.022703


                      *****************************
                      * MAYER POPULATION ANALYSIS *
                      *****************************

  NA   - Mulliken gross atomic population
  ZA   - Total nuclear charge
  QA   - Mulliken gross atomic charge
  VA   - Mayer's total valence
  BVA  - Mayer's bonded valence
  FA   - Mayer's free valence

  ATOM       NA         ZA         QA         VA         BVA        FA
  0 C      6.2784     6.0000    -0.2784     3.8881     3.7736     0.1145
  1 N      7.2815     7.0000    -0.2815     3.3955     3.2529     0.1426
  2 H      0.8380     1.0000     0.1620     0.9629     0.9446     0.0183
  3 H      0.8375     1.0000     0.1625     0.9626     0.9443     0.0183
  4 H      0.8371     1.0000     0.1629     0.9625     0.9442     0.0183
  5 H      0.7256     1.0000     0.2744     0.9890     0.9685     0.0204
  6 H      0.7266     1.0000     0.2734     0.9907     0.9702     0.0205
  7 H      0.7282     1.0000     0.2718     0.9923     0.9718     0.0205
  8 Pb    20.9729    22.0000     1.0271     3.9114     3.5508     0.3607
  9 Cl    17.4213    17.0000    -0.4213     1.1670     0.8947     0.2723
 10 Cl    17.4223    17.0000    -0.4223     1.1656     0.8933     0.2723
 11 Cl    17.4197    17.0000    -0.4197     1.1678     0.8954     0.2725
 12 Cl    17.4240    17.0000    -0.4240     1.1626     0.8899     0.2727
 13 Cl    17.4199    17.0000    -0.4199     1.1666     0.8941     0.2725
 14 Cl    17.4200    17.0000    -0.4200     1.1694     0.8972     0.2721
 15 N      7.2805     7.0000    -0.2805     3.4026     3.2605     0.1421
 16 C      6.2783     6.0000    -0.2783     3.8850     3.7707     0.1143
 17 H      0.7257     1.0000     0.2743     0.9902     0.9697     0.0205
 18 H      0.7247     1.0000     0.2753     0.9875     0.9672     0.0204
 19 H      0.8359     1.0000     0.1641     0.9624     0.9441     0.0183
 20 H      0.8365     1.0000     0.1635     0.9624     0.9441     0.0183
 21 H      0.8372     1.0000     0.1628     0.9626     0.9443     0.0183
 22 H      0.7284     1.0000     0.2716     0.9936     0.9730     0.0206

  Mayer bond orders larger than 0.1
B(  0-C ,  1-N ) :   0.8933 B(  0-C ,  2-H ) :   0.9524 B(  0-C ,  3-H ) :   0.9520 
B(  0-C ,  4-H ) :   0.9518 B(  1-N ,  5-H ) :   0.8094 B(  1-N ,  6-H ) :   0.8080 
B(  1-N ,  7-H ) :   0.8072 B(  5-H , 11-Cl) :   0.1570 B(  6-H ,  9-Cl) :   0.1607 
B(  7-H , 10-Cl) :   0.1626 B(  8-Pb,  9-Cl) :   0.5903 B(  8-Pb, 10-Cl) :   0.5863 
B(  8-Pb, 11-Cl) :   0.5913 B(  8-Pb, 12-Cl) :   0.5876 B(  8-Pb, 13-Cl) :   0.5951 
B(  8-Pb, 14-Cl) :   0.5902 B( 12-Cl, 17-H ) :   0.1561 B( 13-Cl, 18-H ) :   0.1507 
B( 14-Cl, 22-H ) :   0.1645 B( 15-N , 16-C ) :   0.8929 B( 15-N , 17-H ) :   0.8111 
B( 15-N , 18-H ) :   0.8134 B( 15-N , 22-H ) :   0.8072 B( 16-C , 19-H ) :   0.9514 
B( 16-C , 20-H ) :   0.9515 B( 16-C , 21-H ) :   0.9520 


-------
TIMINGS
-------

Total time                : 1526.601 sec
Integral trafo            :   12.937 sec (  0.8%)
I/O of integrals          :    0.865 sec (  0.1%)
K(i,j) Operators          :   91.576 sec (  6.0%)
T(i,j) pair energies      :   11.768 sec (  0.8%)
V-calculation             :    0.020 sec (  0.0%)
V**(-1/2)                 :    0.081 sec (  0.0%)
Gamma(ia|P)               :   84.207 sec (  5.5%)
Gamma-Trafo               :    6.041 sec (  0.4%)
D(virtual)                :   40.753 sec (  2.7%)
D(internal)               :   84.894 sec (  5.6%)
W(virtual)                :   82.042 sec (  5.4%)
W(internal)               :  260.385 sec ( 17.1%)
L(virtual)                :   37.840 sec (  2.5%)
L(internal)               :    1.744 sec (  0.1%)
G(D)                      :   41.293 sec (  2.7%)
G(Z)                      :   41.255 sec (  2.7%)
Z-Vector Solution         :  393.451 sec ( 25.8%)
Z-Vector Solution         :  393.451 sec ( 25.8%)
3-Index Derivative 
+ Separable RIJ part      :   17.717 sec (  1.2%)
2-Index Derivative 
+ Separable RIJ part      :    0.091 sec (  0.0%)
Separable Gradient (COSX) :  311.121 sec ( 20.4%)


---------------------------------------
MP2 TOTAL ENERGY:    -3146.415848562 Eh
---------------------------------------

The final MP2 gradient
  0:   0.00033137   0.00065494   0.00034323
  1:   0.00119671   0.00231877   0.00123061
  2:   0.00286508  -0.00200880   0.00302787
  3:  -0.00270508   0.00289790   0.00235565
  4:   0.00254293   0.00244362  -0.00291149
  5:  -0.00344762  -0.00354766   0.00267659
  6:   0.00235298  -0.00410602  -0.00321224
  7:  -0.00373368   0.00127599  -0.00374483
  8:   0.00116617  -0.00101869   0.00008440
  9:   0.00931372   0.00068710  -0.00024804
 10:  -0.00015636   0.00897084  -0.00093834
 11:   0.00021198   0.00127197   0.00895017
 12:  -0.01068010   0.00051168   0.00082867
 13:   0.00070515  -0.00001805  -0.00906193
 14:   0.00091022  -0.00853112   0.00175594
 15:  -0.00271486  -0.00401209  -0.00223008
 16:  -0.00018549  -0.00032956  -0.00017836
 17:  -0.00250938   0.00385258   0.00273499
 18:   0.00334825   0.00356784  -0.00300952
 19:  -0.00254875  -0.00249261   0.00289747
 20:   0.00273691  -0.00294966  -0.00227895
 21:  -0.00292984   0.00180355  -0.00312483
 22:   0.00393143  -0.00136317   0.00407291

-----------------------------------
NORM OF THE MP2 GRADIENT:  0.029697
-----------------------------------

Entering the calculation of the dispersion correction...

Checking the input atom types...

Done


-------------------------------------------------------------------------------
                          DFT DISPERSION CORRECTION                            
                                                                               
                                DFTD3 V2.1  Rev 6                               
                          USING Becke-Johnson damping                          
-------------------------------------------------------------------------------
The B2PLYP functional is recognized
Active option DFTDOPT                   ...         4   

molecular C6(AA) [au] = 13361.510329 


            DFT-D V3
 parameters
 s6 scaling factor         :     0.6400 
 a1 scaling factor         :     0.3065 
 s8 scaling factor         :     0.9147 
 a2 scaling factor         :     5.0570 
 ad hoc parameters k1-k3   :    16.0000     1.3333    -4.0000 

 Edisp/kcal,au: -19.153424439286  -0.030522921466 
 E6   /kcal   :  -8.924512396 
 E8   /kcal   : -10.228912043 
 % E8         :  53.405134289 

-------------------------   ----------------
Dispersion correction           -0.030522921
-------------------------   ----------------


-------------------------   --------------------
FINAL SINGLE POINT ENERGY     -3146.446371483085
-------------------------   --------------------


                            ***************************************
                            *     ORCA property calculations      *
                            ***************************************


  WARNING: The energy has been calculated at the MP2 level but the densities
           used in the property calculations are still SCF densities
           MP2 response densities have not been calculated 
           use %mp2 Density relaxed end
           or  %mp2 Density unrelaxed end

                                    ---------------------
                                    Active property flags
                                    ---------------------
   (+) Dipole Moment


------------------------------------------------------------------------------
                       ORCA ELECTRIC PROPERTIES CALCULATION
------------------------------------------------------------------------------

Dipole Moment Calculation                       ... on
Quadrupole Moment Calculation                   ... off
Polarizability Calculation                      ... off
GBWName                                         ... PbCl6_MA2_mp2_sp_1.orca.gbw
Electron density file                           ... PbCl6_MA2_mp2_sp_1.orca.scfp.tmp

-------------
DIPOLE MOMENT
-------------
                                X             Y             Z
Electronic contribution:      0.21798      -0.13967       0.01027
Nuclear contribution   :     -0.24453       0.03449      -0.06016
                        -----------------------------------------
Total Dipole Moment    :     -0.02655      -0.10518      -0.04989
                        -----------------------------------------
Magnitude (a.u.)       :      0.11940
Magnitude (Debye)      :      0.30349


                         *** MP2 UNRELAXED DENSITY ***

------------------------------------------------------------------------------
                       ORCA ELECTRIC PROPERTIES CALCULATION
------------------------------------------------------------------------------

Dipole Moment Calculation                       ... on
Quadrupole Moment Calculation                   ... off
Polarizability Calculation                      ... off
GBWName                                         ... PbCl6_MA2_mp2_sp_1.orca.gbw
Electron density file                           ... PbCl6_MA2_mp2_sp_1.orca.pmp2ur

-------------
DIPOLE MOMENT
-------------
                                X             Y             Z
Electronic contribution:      0.21751      -0.13915       0.01025
Nuclear contribution   :     -0.24453       0.03449      -0.06016
                        -----------------------------------------
Total Dipole Moment    :     -0.02702      -0.10465      -0.04991
                        -----------------------------------------
Magnitude (a.u.)       :      0.11905
Magnitude (Debye)      :      0.30260


                           *** MP2 RELAXED DENSITY ***

------------------------------------------------------------------------------
                       ORCA ELECTRIC PROPERTIES CALCULATION
------------------------------------------------------------------------------

Dipole Moment Calculation                       ... on
Quadrupole Moment Calculation                   ... off
Polarizability Calculation                      ... off
GBWName                                         ... PbCl6_MA2_mp2_sp_1.orca.gbw
Electron density file                           ... PbCl6_MA2_mp2_sp_1.orca.pmp2re

-------------
DIPOLE MOMENT
-------------
                                X             Y             Z
Electronic contribution:      0.21576      -0.13740       0.01032
Nuclear contribution   :     -0.24453       0.03449      -0.06016
                        -----------------------------------------
Total Dipole Moment    :     -0.02877      -0.10291      -0.04983
                        -----------------------------------------
Magnitude (a.u.)       :      0.11791
Magnitude (Debye)      :      0.29969


Timings for individual modules:

Sum of individual times         ...     1929.215 sec (=  32.154 min)
GTO integral calculation        ...        1.384 sec (=   0.023 min)   0.1 %
SCF iterations                  ...      400.973 sec (=   6.683 min)  20.8 %
MP2 module                      ...     1526.858 sec (=  25.448 min)  79.1 %
                             ****ORCA TERMINATED NORMALLY****
TOTAL RUN TIME: 0 days 0 hours 32 minutes 9 seconds 928 msec
