
                                 *****************
                                 * O   R   C   A *
                                 *****************

           --- An Ab Initio, DFT and Semiempirical electronic structure package ---

                  #######################################################
                  #                        -***-                        #
                  #  Department of molecular theory and spectroscopy    #
                  #              Directorship: Frank Neese              #
                  # Max Planck Institute for Chemical Energy Conversion #
                  #                  D-45470 Muelheim/Ruhr              #
                  #                       Germany                       #
                  #                                                     #
                  #                  All rights reserved                #
                  #                        -***-                        #
                  #######################################################


                         Program Version 3.0.3 - RELEASE   -


 With contributions from (in alphabetic order):
   Ute Becker             : Parallelization
   Dmytro Bykov           : SCF Hessian
   Dmitry Ganyushin       : Spin-Orbit,Spin-Spin,Magnetic field MRCI
   Andreas Hansen         : Spin unrestricted coupled pair/coupled cluster methods
   Dimitrios Liakos       : Extrapolation schemes; parallel MDCI
   Robert Izsak           : Overlap fitted RIJCOSX, COSX-SCS-MP3
   Christian Kollmar      : KDIIS, OOCD, Brueckner-CCSD(T), CCSD density
   Simone Kossmann        : Meta GGA functionals, TD-DFT gradient, OOMP2, MP2 Hessian
   Taras Petrenko         : DFT Hessian,TD-DFT gradient, ASA and ECA modules, normal mode analysis, Resonance Raman, ABS, FL, XAS/XES, NRVS
   Christoph Reimann      : Effective Core Potentials
   Michael Roemelt        : Restricted open shell CIS
   Christoph Riplinger    : Improved optimizer, TS searches, QM/MM, DLPNO-CCSD
   Barbara Sandhoefer     : DKH picture change effects
   Igor Schapiro          : Molecular dynamics
   Kantharuban Sivalingam : CASSCF convergence, NEVPT2
   Boris Wezisla          : Elementary symmetry handling
   Frank Wennmohs         : Technical directorship


 We gratefully acknowledge several colleagues who have allowed us to
 interface, adapt or use parts of their codes:
   Stefan Grimme, W. Hujo, H. Kruse, T. Risthaus : VdW corrections, initial TS optimization,
                                                   DFT functionals, gCP
   Ed Valeev                                     : LibInt (2-el integral package), F12 methods
   Garnet Chan, S. Sharma, R. Olivares           : DMRG
   Ulf Ekstrom                                   : XCFun DFT Library
   Mihaly Kallay                                 : mrcc  (arbitrary order and MRCC methods)
   Andreas Klamt, Michael Diedenhofen            : otool_cosmo (COSMO solvation model)
   Frank Weinhold                                : gennbo (NPA and NBO analysis)
   Christopher J. Cramer and Donald G. Truhlar   : smd solvation model


 Your calculation uses the libint2 library for the computation of 2-el integrals
 For citations please refer to: http://libint.valeyev.net

 This ORCA versions uses:
   CBLAS   interface :  Fast vector & matrix operations
   LAPACKE interface :  Fast linear algebra routines
   SCALAPACK package :  Parallel linear algebra routines


Your calculation utilizes the basis: Ahlrichs-TZV
Cite in your paper:
H - Kr: A. Schaefer, H. Horn and R. Ahlrichs, J. Chem. Phys. 97, 2571 (1992).

The def2-TZV basis will be loaded
Cite in your paper:
 	F. Weigend, R. Ahlrichs, Phys. Chem. Chem. Phys. 2005, 7, 3297.

Your calculation utilizes the atom-pairwise dispersion correction
with the Becke-Johnson damping scheme (D3BJ)
Cite in your paper:
S.Grimme, S.Ehrlich, L.Goerigk, J Comput Chem, (2011), 32, 1456–1465 
S.Grimme, J.Antony, S.Ehrlich and H.Krieg, J.Chem.Phys., 132, (2010), 154104 
   

================================================================================
                                        WARNINGS
                       Please study these warnings very carefully!
================================================================================

WARNING: The RI method has been chosen with no auxiliary basis (AUX or GTOAUX in BASIS block)
        Standard TZV/J expansion basis used (GTOAUX=TZV_J)

Now building the actual basis set
cite the ECPs for Pb [SD(60,MDF)] as follows:
  B. Metz, H. Stoll, M. Dolg, J. Chem. Phys. 113, 2563 (2000).

ECP parameters for Pb [SD(60,MDF)] have been obtained from:
  pseudopotential library of the Stuttgart/Cologne group
  http://www.theochem.uni-stuttgart.de/pseudopotentials/

cite the ECP basis sets for Pb [DEF2-TZVP] as follows:
  F. Weigend, R. Ahlrichs; Phys. Chem. Chem. Phys. 7, 3297(2005).

ECP basis sets for Pb [DEF2-TZVP] have been obtained from:
  Turbomole basis set library
  ftp://ftp.chemie.uni-karlsruhe.de/pub/basen/



INFO   : the flag for use of LIBINT has been found!

================================================================================
                                       INPUT FILE
================================================================================
NAME = PbMACl3_mp2_md_19.orca
|  1> ! RIJCOSX RI-B2PLYP D3BJ def2-TZVP ECP{def2-TZVP} TIGHTSCF Grid5 FinalGrid6 SlowConv MORead
|  2> %method
|  3>  RunTyp Gradient
|  4>  end
|  5> %maxcore 1000
|  6> %moinp "previous.gbw"
|  7> *xyz 0 1
|  8> C -1.096310 0.999642 -0.993783 
|  9> N -2.181510 0.226239 -0.438169 
| 10> H -1.812840 -0.425878 0.183245 
| 11> H -2.814980 -0.172774 -1.128090 
| 12> H -2.691880 0.919194 0.227898 
| 13> H -0.299464 0.473924 -1.498750 
| 14> H -0.754434 1.640310 -0.239817 
| 15> H -1.424520 1.709060 -1.740270 
| 16> Pb -3.026790 -2.689470 -2.451860 
| 17> Cl -1.102050 -4.138870 -2.020700 
| 18> Cl -2.477080 -0.446299 -3.240110 
| 19> Cl -4.529100 -2.626680 -0.450360 
| 20> *
| 21> 
| 22>                          ****END OF INPUT****
================================================================================

                     *******************************
                     * Energy+Gradient Calculation *
                     *******************************

---------------------------------
CARTESIAN COORDINATES (ANGSTROEM)
---------------------------------
  C     -1.096310    0.999642   -0.993783
  N     -2.181510    0.226239   -0.438169
  H     -1.812840   -0.425878    0.183245
  H     -2.814980   -0.172774   -1.128090
  H     -2.691880    0.919194    0.227898
  H     -0.299464    0.473924   -1.498750
  H     -0.754434    1.640310   -0.239817
  H     -1.424520    1.709060   -1.740270
  Pb    -3.026790   -2.689470   -2.451860
  Cl    -1.102050   -4.138870   -2.020700
  Cl    -2.477080   -0.446299   -3.240110
  Cl    -4.529100   -2.626680   -0.450360

----------------------------
CARTESIAN COORDINATES (A.U.)
----------------------------
  NO LB      ZA    FRAG    MASS        X           Y           Z
   0 C     6.0000    0    12.011         -2.071725657879207          1.889049611965308         -1.877977706546663
   1 N     7.0000    0    14.007         -4.122456458410549          0.427529750812210         -0.828019410374141
   2 H     1.0000    0     1.008         -3.425771124617802         -0.804792786462115          0.346282865410400
   3 H     1.0000    0     1.008         -5.319541272465645         -0.326495543062110         -2.131781154415225
   4 H     1.0000    0     1.008         -5.086915985379939          1.737024923943611          0.430664806468385
   5 H     1.0000    0     1.008         -0.565904946968594          0.895586568292495         -2.832227043214476
   6 H     1.0000    0     1.008         -1.425673646118746          3.099736674732368         -0.453188452258593
   7 H     1.0000    0     1.008         -2.691952672293501          3.229655346439455         -3.288633699079137
   8 Pb   22.0000*   0   207.200  -5.719804164891506  -5.082361745397189  -4.633343918716160
   9 Cl   17.0000    0    35.453         -2.082572685887915         -7.821330803902651         -3.818569598814674
  10 Cl   17.0000    0    35.453         -4.681002811813654         -0.843382883842921         -6.122920543779586
  11 Cl   17.0000    0    35.453         -8.558758633142741         -4.963705841448273         -0.851057061672775
* core charge reduced due to ECP

--------------------------------
INTERNAL COORDINATES (ANGSTROEM)
--------------------------------
 C      0   0   0   0.000000     0.000     0.000
 N      1   0   0   1.443786     0.000     0.000
 H      2   1   0   0.973309   108.657     0.000
 H      2   1   3   1.018080   114.635   231.246
 H      2   1   3   1.088260   104.297   108.577
 H      1   2   3   1.079970   118.279    56.653
 H      1   2   3   1.046804   107.226   287.242
 H      1   2   3   1.080851   112.901   176.602
 Pb     4   2   1   2.851489   134.969    94.939
 Cl     9   4   2   2.447710   112.485   351.697
 Cl     4   2   1   2.156298   128.022    17.341
 Cl     9   4   2   2.503374    69.590    95.905

---------------------------
INTERNAL COORDINATES (A.U.)
---------------------------
 C      0   0   0   0.000000     0.000     0.000
 N      1   0   0   2.728360     0.000     0.000
 H      2   1   0   1.839287   108.657     0.000
 H      2   1   3   1.923892   114.635   231.246
 H      2   1   3   2.056513   104.297   108.577
 H      1   2   3   2.040847   118.279    56.653
 H      1   2   3   1.978174   107.226   287.242
 H      1   2   3   2.042512   112.901   176.602
 Pb     4   2   1   5.388533   134.969    94.939
 Cl     9   4   2   4.625501   112.485   351.697
 Cl     4   2   1   4.074813   128.022    17.341
 Cl     9   4   2   4.730691    69.590    95.905

---------------------
BASIS SET INFORMATION
---------------------
There are 5 groups of distinct atoms

 Group   1 Type C   : 11s6p2d1f contracted to 5s3p2d1f pattern {62111/411/11/1}
 Group   2 Type N   : 11s6p2d1f contracted to 5s3p2d1f pattern {62111/411/11/1}
 Group   3 Type H   : 5s1p contracted to 3s1p pattern {311/1}
 Group   4 Type Pb  : 10s9p8d2f contracted to 6s5p3d2f pattern {421111/33111/611/11}
 Group   5 Type Cl  : 14s9p3d1f contracted to 5s5p2d1f pattern {73211/51111/21/1}

Atom   0C    basis set group =>   1
Atom   1N    basis set group =>   2
Atom   2H    basis set group =>   3
Atom   3H    basis set group =>   3
Atom   4H    basis set group =>   3
Atom   5H    basis set group =>   3
Atom   6H    basis set group =>   3
Atom   7H    basis set group =>   3
Atom   8Pb   basis set group =>   4
Atom   9Cl   basis set group =>   5
Atom  10Cl   basis set group =>   5
Atom  11Cl   basis set group =>   5
-------------------------------
AUXILIARY BASIS SET INFORMATION
-------------------------------
There are 5 groups of distinct atoms

 Group   1 Type C   : 12s5p4d2f1g contracted to 6s4p3d1f1g pattern {711111/2111/211/2/1}
 Group   2 Type N   : 12s5p4d2f1g contracted to 6s4p3d1f1g pattern {711111/2111/211/2/1}
 Group   3 Type H   : 5s2p1d contracted to 3s1p1d pattern {311/2/1}
 Group   4 Type Pb  : 31s12p8d6f3g contracted to 31s12p8d6f3g pattern {1111111111111111111111111111111/111111111111/11111111/111111/111}
 Group   5 Type Cl  : 14s5p5d2f1g contracted to 8s4p3d1f1g pattern {71111111/2111/311/2/1}

Atom   0C    basis set group =>   1
Atom   1N    basis set group =>   2
Atom   2H    basis set group =>   3
Atom   3H    basis set group =>   3
Atom   4H    basis set group =>   3
Atom   5H    basis set group =>   3
Atom   6H    basis set group =>   3
Atom   7H    basis set group =>   3
Atom   8Pb   basis set group =>   4
Atom   9Cl   basis set group =>   5
Atom  10Cl   basis set group =>   5
Atom  11Cl   basis set group =>   5

-------------------------
ECP PARAMETER INFORMATION
-------------------------

 Group 1, Type Pb ECP SD(60,MDF) (replacing 60 core electrons, lmax=5)

Atom   8Pb   ECP group =>   1


------------------------------------------------------------------------------
                           ORCA GTO INTEGRAL CALCULATION
                           -- RI-GTO INTEGRALS CHOSEN --
------------------------------------------------------------------------------

                         BASIS SET STATISTICS AND STARTUP INFO

Gaussian basis set:
 # of primitive gaussian shells          ...  186
 # of primitive gaussian functions       ...  420
 # of contracted shells                  ...  101
 # of contracted basis functions         ...  259
 Highest angular momentum                ...    3
 Maximum contraction depth               ...    7
Auxiliary gaussian basis set:
 # of primitive gaussian shells          ...  237
 # of primitive gaussian functions       ...  643
 # of contracted shells                  ...  171
 # of contracted aux-basis functions     ...  493
 Highest angular momentum                ...    4
 Maximum contraction depth               ...    7
Ratio of auxiliary to basis functions    ...  1.90
Integral package used                  ... LIBINT
 One Electron integrals                  
   ECP integrals                         ... done
 Ordering auxiliary basis shells         ... done
 Integral threshhold             Thresh  ...  2.500e-11
 Primitive cut-off               TCut    ...  2.500e-12
 Pre-screening matrix                    ... done
 Shell pair data                         ... 
 Ordering of the shell pairs             ... done (   0.001 sec) 4313 of 5151 pairs
 Determination of significant pairs      ... done (   0.000 sec)
 Creation of shell pair data             ... done (   0.002 sec)
 Storage of shell pair data              ... done (   0.001 sec)
 Shell pair data done in (   0.003 sec)
 Computing two index integrals           ... done
 Cholesky decomposition of the V-matrix  ... done


Timings:
 Total evaluation time                   ...   0.659 sec (  0.011 min)
 One electron matrix time                ...   0.333 sec (  0.006 min) = 50.6%
 Schwartz matrix evaluation time         ...   0.213 sec (  0.004 min) = 32.4%
 Two index repulsion integral time       ...   0.009 sec (  0.000 min) =  1.3%
 Cholesky decomposition of V             ...   0.073 sec (  0.001 min) = 11.1%
 Three index repulsion integral time     ...   0.000 sec (  0.000 min) =  0.0%

-------------------------------------------------------------------------------
                                 ORCA SCF
-------------------------------------------------------------------------------

------------
SCF SETTINGS
------------
Hamiltonian:
 Density Functional     Method          .... DFT(GTOs)
 Exchange Functional    Exchange        .... B88
   X-Alpha parameter    XAlpha          ....  0.666667
   Becke's b parameter  XBeta           ....  0.004200
 Correlation Functional Correlation     .... LYP
 LDA part of GGA corr.  LDAOpt          .... VWN-3
 Gradients option       PostSCFGGA      .... off
 Hybrid DFT is turned on
   Fraction HF Exchange ScalHFX         ....  0.530000
   Scaling of DF-GGA-X  ScalDFX         ....  0.470000
   Scaling of DF-GGA-C  ScalDFC         ....  0.730000
   Scaling of DF-LDA-C  ScalLDAC        ....  0.730000
   Perturbative correction              ....  0.270000
 RI-approximation to the Coulomb term is turned on
   Number of auxiliary basis functions  .... 493
   RIJ-COSX (HFX calculated with COS-X)).... on


General Settings:
 Integral files         IntName         .... PbMACl3_mp2_md_19.orca
 Hartree-Fock type      HFTyp           .... RHF
 Total Charge           Charge          ....    0
 Multiplicity           Mult            ....    1
 Number of Electrons    NEL             ....   92
 Basis Dimension        Dim             ....  259
 Nuclear Repulsion      ENuc            ....    589.1819789069 Eh

Convergence Acceleration:
 DIIS                   CNVDIIS         .... on
   Start iteration      DIISMaxIt       ....     0
   Startup error        DIISStart       ....  0.200000
   # of expansion vecs  DIISMaxEq       ....     5
   Bias factor          DIISBfac        ....   1.050
   Max. coefficient     DIISMaxC        ....  10.000
 Newton-Raphson         CNVNR           .... off
 SOSCF                  CNVSOSCF        .... on
   Start iteration      SOSCFMaxIt      ....   150
   Startup grad/error   SOSCFStart      ....  0.001000
 Level Shifting         CNVShift        .... on
   Level shift para.    LevelShift      ....    0.2500
   Turn off err/grad.   ShiftErr        ....    0.0000
 Zerner damping         CNVZerner       .... off
 Static damping         CNVDamp         .... on
   Fraction old density DampFac         ....    0.8500
   Max. Damping (<1)    DampMax         ....    0.9800
   Min. Damping (>=0)   DampMin         ....    0.0000
   Turn off err/grad.   DampErr         ....    0.0300
 Fernandez-Rico         CNVRico         .... off

SCF Procedure:
 Maximum # iterations   MaxIter         ....   125
 SCF integral mode      SCFMode         .... Direct
   Integral package                     .... LIBINT
 Reset frequeny         DirectResetFreq ....    20
 Integral Threshold     Thresh          ....  2.500e-11 Eh
 Primitive CutOff       TCut            ....  2.500e-12 Eh

Convergence Tolerance:
 Convergence Check Mode ConvCheckMode   .... Total+1el-Energy
 Energy Change          TolE            ....  1.000e-08 Eh
 1-El. energy change                    ....  1.000e-05 Eh
 Orbital Gradient       TolG            ....  1.000e-05
 Orbital Rotation angle TolX            ....  1.000e-05
 DIIS Error             TolErr          ....  5.000e-07


Diagonalization of the overlap matrix:
Smallest eigenvalue                        ... 9.378e-04
Time for diagonalization                   ...    0.207 sec
Threshold for overlap eigenvalues          ... 1.000e-08
Number of eigenvalues below threshold      ... 0
Time for construction of square roots      ...    0.005 sec
Total time needed                          ...    0.213 sec

---------------------
INITIAL GUESS: MOREAD
---------------------
Guess MOs are being read from file: previous.gbw
Input geometry compatible with but different from current geometry
Input basis set matches current basis set (good)
MOs were renormalized
MOs were reorthogonalized (Schmidt)
                      ------------------
                      INITIAL GUESS DONE (   0.1 sec)
                      ------------------
-------------------
DFT GRID GENERATION
-------------------

General Integration Accuracy     IntAcc      ...  5.010
Radial Grid Type                 RadialGrid  ... Gauss-Chebyshev
Angular Grid (max. acc.)         AngularGrid ... Lebedev-434
Angular grid pruning method      GridPruning ... 3 (G Style)
Weight generation scheme         WeightScheme... Becke
Basis function cutoff            BFCut       ...    1.0000e-11
Integration weight cutoff        WCut        ...    1.0000e-14
Grids for H and He will be reduced by one unit

# of grid points (after initial pruning)     ... 115882 (   0.0 sec)
# of grid points (after weights+screening)   ... 109064 (   0.2 sec)
nearest neighbour list constructed           ...    0.0 sec
Grid point re-assignment to atoms done       ...    0.0 sec
Grid point division into batches done        ...    0.9 sec
Reduced shell lists constructed in    3.3 sec

Total number of grid points                  ...   109064
Total number of batches                      ...     1709
Average number of points per batch           ...       63
Average number of grid points per atom       ...     9089
Average number of shells per batch           ...    53.00 (52.48%)
Average number of basis functions per batch  ...   139.02 (53.67%)
Average number of large shells per batch     ...    39.77 (75.04%)
Average number of large basis fcns per batch ...   102.33 (73.61%)
Maximum spatial batch extension              ...  31.21, 30.37, 39.37 au
Average spatial batch extension              ...   2.46,  2.37,  2.48 au

Time for grid setup =    3.512 sec

--------------------
COSX GRID GENERATION
--------------------

General Integration Accuracy     IntAcc      ...  3.340
Radial Grid Type                 RadialGrid  ... Gauss-Chebyshev
Angular Grid (max. acc.)         AngularGrid ... Lebedev-50
Angular grid pruning method      GridPruning ... 3 (G Style)
Weight generation scheme         WeightScheme... Becke
Basis function cutoff            BFCut       ...    1.0000e-11
Integration weight cutoff        WCut        ...    1.0000e-14
Grids for H and He will be reduced by one unit

# of grid points (after initial pruning)     ...   6578 (   0.0 sec)
# of grid points (after weights+screening)   ...   6270 (   0.0 sec)
nearest neighbour list constructed           ...    0.0 sec
Grid point re-assignment to atoms done       ...    0.0 sec
Grid point division into batches done        ...    0.0 sec
Reduced shell lists constructed in    0.2 sec

Total number of grid points                  ...     6270
Total number of batches                      ...      104
Average number of points per batch           ...       60
Average number of grid points per atom       ...      522
Average number of shells per batch           ...    64.43 (63.79%)
Average number of basis functions per batch  ...   172.16 (66.47%)
Average number of large shells per batch     ...    49.70 (77.15%)
Average number of large basis fcns per batch ...   130.05 (75.54%)
Maximum spatial batch extension              ...  26.02, 26.61, 35.78 au
Average spatial batch extension              ...   6.55,  5.85,  6.72 au

Overlap Fitting                  UseSFitting ... on
Constructing numerical overlap ... done (      0.1 sec)
Inverting numerical overlap    ... done (      0.0 sec)
Obtaining analytic overlap     ... done (      0.0 sec)
Final contraction and storage  ... done (      0.0 sec)


General Integration Accuracy     IntAcc      ...  3.670
Radial Grid Type                 RadialGrid  ... Gauss-Chebyshev
Angular Grid (max. acc.)         AngularGrid ... Lebedev-50
Angular grid pruning method      GridPruning ... 3 (G Style)
Weight generation scheme         WeightScheme... Becke
Basis function cutoff            BFCut       ...    1.0000e-11
Integration weight cutoff        WCut        ...    1.0000e-14
Grids for H and He will be reduced by one unit

# of grid points (after initial pruning)     ...   8124 (   0.0 sec)
# of grid points (after weights+screening)   ...   7722 (   0.0 sec)
nearest neighbour list constructed           ...    0.0 sec
Grid point re-assignment to atoms done       ...    0.0 sec
Grid point division into batches done        ...    0.0 sec
Reduced shell lists constructed in    0.2 sec

Total number of grid points                  ...     7722
Total number of batches                      ...      127
Average number of points per batch           ...       60
Average number of grid points per atom       ...      644
Average number of shells per batch           ...    63.55 (62.93%)
Average number of basis functions per batch  ...   169.09 (65.28%)
Average number of large shells per batch     ...    49.06 (77.20%)
Average number of large basis fcns per batch ...   127.58 (75.45%)
Maximum spatial batch extension              ...  27.61, 27.04, 37.56 au
Average spatial batch extension              ...   5.99,  5.34,  6.03 au

Overlap Fitting                  UseSFitting ... on
Constructing numerical overlap ... done (      0.1 sec)
Inverting numerical overlap    ... done (      0.0 sec)
Obtaining analytic overlap     ... done (      0.0 sec)
Final contraction and storage  ... done (      0.0 sec)


General Integration Accuracy     IntAcc      ...  4.010
Radial Grid Type                 RadialGrid  ... Gauss-Chebyshev
Angular Grid (max. acc.)         AngularGrid ... Lebedev-110
Angular grid pruning method      GridPruning ... 3 (G Style)
Weight generation scheme         WeightScheme... Becke
Basis function cutoff            BFCut       ...    1.0000e-11
Integration weight cutoff        WCut        ...    1.0000e-14
Grids for H and He will be reduced by one unit

# of grid points (after initial pruning)     ...  15170 (   0.0 sec)
# of grid points (after weights+screening)   ...  14494 (   0.0 sec)
nearest neighbour list constructed           ...    0.0 sec
Grid point re-assignment to atoms done       ...    0.0 sec
Grid point division into batches done        ...    0.0 sec
Reduced shell lists constructed in    0.4 sec

Total number of grid points                  ...    14494
Total number of batches                      ...      233
Average number of points per batch           ...       62
Average number of grid points per atom       ...     1208
Average number of shells per batch           ...    60.02 (59.43%)
Average number of basis functions per batch  ...   159.44 (61.56%)
Average number of large shells per batch     ...    45.96 (76.58%)
Average number of large basis fcns per batch ...   120.24 (75.41%)
Maximum spatial batch extension              ...  39.33, 29.00, 30.53 au
Average spatial batch extension              ...   5.09,  4.55,  4.85 au

Overlap Fitting                  UseSFitting ... on
Constructing numerical overlap ... done (      0.2 sec)
Inverting numerical overlap    ... done (      0.0 sec)
Obtaining analytic overlap     ... done (      0.0 sec)
Final contraction and storage  ... done (      0.0 sec)

Time for X-Grid setup             =    1.331 sec
--------------
SCF ITERATIONS
--------------
ITER       Energy         Delta-E        Max-DP      RMS-DP      [F,P]     Damp
               ***  Starting incremental Fock matrix formation  ***
  0  -1663.8881461171   0.000000000000 0.09264073  0.00204712  0.5616425 0.8500
  1  -1664.6023167552  -0.714170638107 0.08700607  0.00183076  0.4778397 0.8500
                               ***Turning on DIIS***
  2  -1665.2072650008  -0.604948245604 0.07192336  0.00156710  0.4063174 0.8500
  3  -1665.7232883793  -0.516023378546 0.05808507  0.00133185  0.3454917 0.8500
  4  -1666.1705330585  -0.447244679127 0.04811853  0.00114879  0.2937433 0.8500
  5  -1666.5567762688  -0.386243210311 0.04039685  0.00099606  0.2497184 0.8500
  6  -1666.8925373856  -0.335761116796 0.03459215  0.00085967  0.2122757 0.8500
  7  -1667.1850026578  -0.292465272213 0.02987916  0.00073806  0.1804405 0.8500
  8  -1667.4393116589  -0.254309001083 0.02593236  0.00063082  0.1533788 0.8500
  9  -1667.6590367651  -0.219725106202 0.02223942  0.00053775  0.1303757 0.8500
 10  -1667.8482068305  -0.189170065419 0.01888765  0.00045812  0.1108227 0.8500
 11  -1668.0108008339  -0.162594003353 0.01601543  0.00039034  0.0942023 0.8500
 12  -1668.1503805702  -0.139579736316 0.01360930  0.00033262  0.0800746 0.8500
 13  -1668.2700465846  -0.119666014402 0.01159017  0.00028334  0.0680657 0.8500
 14  -1668.3724969539  -0.102450369302 0.00986977  0.00024126  0.0578576 0.8500
 15  -1668.4601035680  -0.087606614175 0.00839456  0.00020539  0.0491805 0.8500
 16  -1668.5349478944  -0.074844326348 0.00713531  0.00017485  0.0418047 0.8500
 17  -1668.5988420383  -0.063894143873 0.00606632  0.00014887  0.0355351 0.8500
 18  -1668.6533538788  -0.054511840551 0.00516012  0.00012674  0.0302058 0.8500
 19  -1668.6998355096  -0.046481630750 0.02926863  0.00071940  0.0256757 0.0000
               *** Restarting incremental Fock matrix formation ***
                                   *** Resetting DIIS ***
                      *** Initiating the SOSCF procedure ***
                           *** Shutting down DIIS ***
                      *** Re-Reading the Fockian *** 
                      *** Removing any level shift *** 
ITER      Energy       Delta-E        Grad      Rot      Max-DP    RMS-DP
 20  -1668.96853428  -0.2686987660  0.000381  0.000381  0.001110  0.000022
               *** Restarting incremental Fock matrix formation ***
 21  -1668.96590889   0.0026253854  0.000342  0.000254  0.001005  0.000020
 22  -1668.96590798   0.0000009074  0.000079  0.000130  0.000250  0.000005
 23  -1668.96590740   0.0000005789  0.000057  0.000033  0.000131  0.000003
 24  -1668.96590778  -0.0000003740  0.000009  0.000023  0.000029  0.000000
                  ***Gradient check signals convergence***
              ***Rediagonalizing the Fockian in SOSCF/NRSCF***

               *****************************************************
               *                     SUCCESS                       *
               *           SCF CONVERGED AFTER  25 CYCLES          *
               *****************************************************

Old exchange energy                            =    -59.249319249 Eh
New exchange energy                            =    -59.252657716 Eh
Exchange energy change after final integration =     -0.003338467 Eh
Total energy after final integration           =  -1668.969246269 Eh
Final COS-X integration done in                =    18.410 sec

----------------
TOTAL SCF ENERGY
----------------

Total Energy       :        -1668.96924627 Eh          -45414.96204 eV

Components:
Nuclear Repulsion  :          589.18197891 Eh           16032.45672 eV
Electronic Energy  :        -2258.15122518 Eh          -61447.41876 eV

One Electron Energy:        -3549.49756907 Eh          -96586.73923 eV
Two Electron Energy:         1291.34634389 Eh           35139.32047 eV

Virial components:
Potential Energy   :        -3207.11503351 Eh          -87270.03678 eV
Kinetic Energy     :         1538.14578724 Eh           41855.07474 eV
Virial Ratio       :            2.08505270


DFT components:
N(Alpha)           :       46.000005851221 electrons
N(Beta)            :       46.000005851221 electrons
N(Total)           :       92.000011702441 electrons
E(X)               :      -52.617093787872 Eh       
E(C)               :       -2.610374996628 Eh       
E(XC)              :      -55.227468784500 Eh       

---------------
SCF CONVERGENCE
---------------

  Last Energy change         ...   -2.4666e-08  Tolerance :   1.0000e-08
  Last MAX-Density change    ...    6.1062e-14  Tolerance :   1.0000e-07
  Last RMS-Density change    ...    6.4342e-16  Tolerance :   5.0000e-09
  Last Orbital Gradient      ...    2.3200e-06  Tolerance :   1.0000e-05
  Last Orbital Rotation      ...    8.9191e-06  Tolerance :   1.0000e-05

             **** THE GBW FILE WAS UPDATED (PbMACl3_mp2_md_19.orca.gbw) ****
             **** DENSITY FILE WAS UPDATED (PbMACl3_mp2_md_19.orca.scfp.tmp) ****
             **** ENERGY FILE WAS UPDATED (PbMACl3_mp2_md_19.orca.en.tmp) ****
----------------
ORBITAL ENERGIES
----------------

  NO   OCC          E(Eh)            E(eV) 
   0   2.0000    -102.860950     -2798.9888 
   1   2.0000    -102.833257     -2798.2352 
   2   2.0000    -102.825163     -2798.0149 
   3   2.0000     -15.027429      -408.9171 
   4   2.0000     -10.718811      -291.6737 
   5   2.0000      -9.870719      -268.5959 
   6   2.0000      -9.840808      -267.7820 
   7   2.0000      -9.833035      -267.5705 
   8   2.0000      -7.507346      -204.2853 
   9   2.0000      -7.506066      -204.2504 
  10   2.0000      -7.505674      -204.2398 
  11   2.0000      -7.477745      -203.4798 
  12   2.0000      -7.476180      -203.4372 
  13   2.0000      -7.475869      -203.4287 
  14   2.0000      -7.470109      -203.2720 
  15   2.0000      -7.468186      -203.2197 
  16   2.0000      -7.468036      -203.2156 
  17   2.0000      -5.767726      -156.9478 
  18   2.0000      -3.540365       -96.3382 
  19   2.0000      -3.538008       -96.2741 
  20   2.0000      -3.537206       -96.2523 
  21   2.0000      -1.211518       -32.9671 
  22   2.0000      -0.953737       -25.9525 
  23   2.0000      -0.943278       -25.6679 
  24   2.0000      -0.937119       -25.5003 
  25   2.0000      -0.930020       -25.3071 
  26   2.0000      -0.928273       -25.2596 
  27   2.0000      -0.896434       -24.3932 
  28   2.0000      -0.885478       -24.0951 
  29   2.0000      -0.850514       -23.1437 
  30   2.0000      -0.836483       -22.7619 
  31   2.0000      -0.751710       -20.4551 
  32   2.0000      -0.724149       -19.7051 
  33   2.0000      -0.648212       -17.6387 
  34   2.0000      -0.556708       -15.1488 
  35   2.0000      -0.540306       -14.7025 
  36   2.0000      -0.526419       -14.3246 
  37   2.0000      -0.391837       -10.6624 
  38   2.0000      -0.382835       -10.4175 
  39   2.0000      -0.373919       -10.1749 
  40   2.0000      -0.353086        -9.6080 
  41   2.0000      -0.338797        -9.2191 
  42   2.0000      -0.331140        -9.0108 
  43   2.0000      -0.324168        -8.8211 
  44   2.0000      -0.318962        -8.6794 
  45   2.0000      -0.242453        -6.5975 
  46   0.0000      -0.023050        -0.6272 
  47   0.0000       0.001496         0.0407 
  48   0.0000       0.047114         1.2820 
  49   0.0000       0.050860         1.3840 
  50   0.0000       0.065392         1.7794 
  51   0.0000       0.072092         1.9617 
  52   0.0000       0.096877         2.6361 
  53   0.0000       0.111037         3.0215 
  54   0.0000       0.124738         3.3943 
  55   0.0000       0.142129         3.8675 
  56   0.0000       0.149882         4.0785 
  57   0.0000       0.168271         4.5789 
  58   0.0000       0.168525         4.5858 
  59   0.0000       0.207700         5.6518 
  60   0.0000       0.210206         5.7200 
  61   0.0000       0.227923         6.2021 
  62   0.0000       0.246472         6.7068 
  63   0.0000       0.252597         6.8735 
  64   0.0000       0.278551         7.5798 
  65   0.0000       0.295301         8.0355 
  66   0.0000       0.307742         8.3741 
  67   0.0000       0.320878         8.7315 
  68   0.0000       0.342351         9.3158 
  69   0.0000       0.348598         9.4858 
  70   0.0000       0.393917        10.7190 
  71   0.0000       0.402215        10.9448 
  72   0.0000       0.411542        11.1986 
  73   0.0000       0.428087        11.6488 
  74   0.0000       0.439820        11.9681 
  75   0.0000       0.445020        12.1096 
  76   0.0000       0.451442        12.2844 
  77   0.0000       0.461240        12.5510 
  78   0.0000       0.472197        12.8491 
  79   0.0000       0.475471        12.9382 
  80   0.0000       0.476052        12.9540 
  81   0.0000       0.483944        13.1688 
  82   0.0000       0.493045        13.4164 
  83   0.0000       0.507856        13.8195 
  84   0.0000       0.517940        14.0939 
  85   0.0000       0.521191        14.1823 
  86   0.0000       0.531823        14.4717 
  87   0.0000       0.554879        15.0990 
  88   0.0000       0.564460        15.3597 
  89   0.0000       0.575631        15.6637 
  90   0.0000       0.576509        15.6876 
  91   0.0000       0.583606        15.8807 
  92   0.0000       0.596853        16.2412 
  93   0.0000       0.601447        16.3662 
  94   0.0000       0.617093        16.7920 
  95   0.0000       0.620722        16.8907 
  96   0.0000       0.631374        17.1806 
  97   0.0000       0.649147        17.6642 
  98   0.0000       0.664176        18.0731 
  99   0.0000       0.692488        18.8436 
 100   0.0000       0.697835        18.9891 
 101   0.0000       0.711269        19.3546 
 102   0.0000       0.731231        19.8978 
 103   0.0000       0.746245        20.3063 
 104   0.0000       0.821390        22.3512 
 105   0.0000       0.842097        22.9146 
 106   0.0000       0.865902        23.5624 
 107   0.0000       0.868271        23.6269 
 108   0.0000       0.889949        24.2167 
 109   0.0000       0.902617        24.5615 
 110   0.0000       0.918655        24.9979 
 111   0.0000       0.939129        25.5550 
 112   0.0000       0.951979        25.9047 
 113   0.0000       0.957134        26.0449 
 114   0.0000       0.971520        26.4364 
 115   0.0000       0.980293        26.6751 
 116   0.0000       1.000378        27.2217 
 117   0.0000       1.020214        27.7614 
 118   0.0000       1.100138        29.9363 
 119   0.0000       1.109004        30.1775 
 120   0.0000       1.112428        30.2707 
 121   0.0000       1.119979        30.4762 
 122   0.0000       1.153553        31.3898 
 123   0.0000       1.183320        32.1998 
 124   0.0000       1.229266        33.4500 
 125   0.0000       1.274561        34.6826 
 126   0.0000       1.301682        35.4206 
 127   0.0000       1.324789        36.0493 
 128   0.0000       1.361879        37.0586 
 129   0.0000       1.372800        37.3558 
 130   0.0000       1.389827        37.8191 
 131   0.0000       1.502374        40.8817 
 132   0.0000       1.528617        41.5958 
 133   0.0000       1.597155        43.4608 
 134   0.0000       1.618785        44.0494 
 135   0.0000       1.629943        44.3530 
 136   0.0000       1.734379        47.1948 
 137   0.0000       1.756004        47.7833 
 138   0.0000       1.777962        48.3808 
 139   0.0000       1.824744        49.6538 
 140   0.0000       1.875165        51.0258 
 141   0.0000       1.893308        51.5195 
 142   0.0000       1.934031        52.6277 
 143   0.0000       1.939463        52.7755 
 144   0.0000       1.941271        52.8247 
 145   0.0000       1.946901        52.9779 
 146   0.0000       1.962259        53.3958 
 147   0.0000       1.969541        53.5939 
 148   0.0000       1.972726        53.6806 
 149   0.0000       1.983569        53.9757 
 150   0.0000       2.003660        54.5224 
 151   0.0000       2.018415        54.9239 
 152   0.0000       2.031383        55.2767 
 153   0.0000       2.049053        55.7576 
 154   0.0000       2.065445        56.2036 
 155   0.0000       2.073856        56.4325 
 156   0.0000       2.076772        56.5118 
 157   0.0000       2.087184        56.7952 
 158   0.0000       2.111683        57.4618 
 159   0.0000       2.124364        57.8069 
 160   0.0000       2.145253        58.3753 
 161   0.0000       2.158167        58.7267 
 162   0.0000       2.161274        58.8113 
 163   0.0000       2.170128        59.0522 
 164   0.0000       2.179059        59.2952 
 165   0.0000       2.199106        59.8407 
 166   0.0000       2.212023        60.1922 
 167   0.0000       2.246538        61.1314 
 168   0.0000       2.248702        61.1903 
 169   0.0000       2.253837        61.3300 
 170   0.0000       2.267649        61.7059 
 171   0.0000       2.274303        61.8869 
 172   0.0000       2.275923        61.9310 
 173   0.0000       2.279847        62.0378 
 174   0.0000       2.281320        62.0779 
 175   0.0000       2.287489        62.2457 
 176   0.0000       2.294858        62.4463 
 177   0.0000       2.314020        62.9677 
 178   0.0000       2.319508        63.1170 
 179   0.0000       2.323105        63.2149 
 180   0.0000       2.346906        63.8626 
 181   0.0000       2.371913        64.5430 
 182   0.0000       2.391658        65.0803 
 183   0.0000       2.392202        65.0951 
 184   0.0000       2.402912        65.3866 
 185   0.0000       2.417863        65.7934 
 186   0.0000       2.421260        65.8858 
 187   0.0000       2.431869        66.1745 
 188   0.0000       2.439387        66.3791 
 189   0.0000       2.447493        66.5997 
 190   0.0000       2.455949        66.8298 
 191   0.0000       2.465975        67.1026 
 192   0.0000       2.473462        67.3063 
 193   0.0000       2.492649        67.8284 
 194   0.0000       2.500287        68.0363 
 195   0.0000       2.507089        68.2214 
 196   0.0000       2.552400        69.4543 
 197   0.0000       2.584925        70.3394 
 198   0.0000       2.592284        70.5396 
 199   0.0000       2.601827        70.7993 
 200   0.0000       2.611792        71.0705 
 201   0.0000       2.648182        72.0607 
 202   0.0000       2.659138        72.3588 
 203   0.0000       2.686042        73.0909 
 204   0.0000       2.722864        74.0929 
 205   0.0000       2.741730        74.6063 
 206   0.0000       2.766695        75.2856 
 207   0.0000       2.841834        77.3302 
 208   0.0000       2.866882        78.0118 
 209   0.0000       2.888189        78.5916 
 210   0.0000       2.914265        79.3012 
 211   0.0000       3.014593        82.0313 
 212   0.0000       3.045562        82.8740 
 213   0.0000       3.084610        83.9365 
 214   0.0000       3.146833        85.6297 
 215   0.0000       3.180020        86.5327 
 216   0.0000       3.247542        88.3701 
 217   0.0000       3.374376        91.8214 
 218   0.0000       3.502844        95.3172 
 219   0.0000       3.558287        96.8259 
 220   0.0000       3.576321        97.3166 
 221   0.0000       3.679633       100.1279 
 222   0.0000       3.834319       104.3371 
 223   0.0000       3.875623       105.4611 
 224   0.0000       3.918996       106.6413 
 225   0.0000       4.205565       114.4392 
 226   0.0000       4.255377       115.7947 
 227   0.0000       4.444368       120.9374 
 228   0.0000       4.494385       122.2984 
 229   0.0000       4.770563       129.8136 
 230   0.0000       4.832844       131.5084 
 231   0.0000       4.908149       133.5575 
 232   0.0000       4.943161       134.5103 
 233   0.0000       4.982107       135.5700 
 234   0.0000       5.083918       138.3404 
 235   0.0000       5.170277       140.6904 
 236   0.0000       5.258066       143.0793 
 237   0.0000       5.391233       146.7029 
 238   0.0000       5.545339       150.8963 
 239   0.0000       5.935486       161.5128 
 240   0.0000      11.060114       300.9610 
 241   0.0000      11.070752       301.2505 
 242   0.0000      11.088605       301.7363 
 243   0.0000      11.093265       301.8631 
 244   0.0000      11.097025       301.9654 
 245   0.0000      11.132085       302.9194 
 246   0.0000      11.216732       305.2228 
 247   0.0000      11.231095       305.6136 
 248   0.0000      11.246801       306.0410 
 249   0.0000      22.825825       621.1223 
 250   0.0000      25.211089       686.0286 
 251   0.0000      25.261960       687.4129 
 252   0.0000      25.432054       692.0414 
 253   0.0000      32.276456       878.2870 
 254   0.0000      35.626318       969.4414 
 255   0.0000      35.833876       975.0893 
 256   0.0000      35.865685       975.9549 
 257   0.0000      35.933189       977.7918 
 258   0.0000     123.667534      3365.1647 

                    ********************************
                    * MULLIKEN POPULATION ANALYSIS *
                    ********************************

-----------------------
MULLIKEN ATOMIC CHARGES
-----------------------
   0 C :   -0.285019
   1 N :   -0.263986
   2 H :    0.293121
   3 H :    0.303403
   4 H :    0.312297
   5 H :    0.193936
   6 H :    0.142452
   7 H :    0.180247
   8 Pb:    0.783715
   9 Cl:   -0.535737
  10 Cl:   -0.554557
  11 Cl:   -0.569872
Sum of atomic charges:    0.0000000

--------------------------------
MULLIKEN REDUCED ORBITAL CHARGES
--------------------------------
  0 C s       :     3.237387  s :     3.237387
      pz      :     1.060930  p :     2.970322
      px      :     0.909385
      py      :     1.000008
      dz2     :     0.007076  d :     0.070722
      dxz     :     0.015116
      dyz     :     0.022385
      dx2y2   :     0.011884
      dxy     :     0.014261
      f0      :     0.000403  f :     0.006587
      f+1     :     0.000621
      f-1     :     0.000718
      f+2     :     0.000703
      f-2     :     0.002054
      f+3     :     0.000921
      f-3     :     0.001167
  1 N s       :     3.431696  s :     3.431696
      pz      :     1.275778  p :     3.780492
      px      :     1.253949
      py      :     1.250764
      dz2     :     0.005069  d :     0.049270
      dxz     :     0.011264
      dyz     :     0.013945
      dx2y2   :     0.008319
      dxy     :     0.010674
      f0      :     0.000044  f :     0.002529
      f+1     :     0.000315
      f-1     :     0.000230
      f+2     :     0.000328
      f-2     :     0.001111
      f+3     :     0.000347
      f-3     :     0.000152
  2 H s       :     0.669555  s :     0.669555
      pz      :     0.013938  p :     0.037323
      px      :     0.009098
      py      :     0.014288
  3 H s       :     0.653919  s :     0.653919
      pz      :     0.020717  p :     0.042677
      px      :     0.013151
      py      :     0.008810
  4 H s       :     0.658487  s :     0.658487
      pz      :     0.010545  p :     0.029216
      px      :     0.008026
      py      :     0.010645
  5 H s       :     0.783117  s :     0.783117
      pz      :     0.007563  p :     0.022947
      px      :     0.009866
      py      :     0.005518
  6 H s       :     0.834291  s :     0.834291
      pz      :     0.008836  p :     0.023258
      px      :     0.005315
      py      :     0.009106
  7 H s       :     0.796411  s :     0.796411
      pz      :     0.010579  p :     0.023342
      px      :     0.004054
      py      :     0.008709
  8 Pbs       :     3.938654  s :     3.938654
      pz      :     2.374272  p :     7.035009
      px      :     2.355402
      py      :     2.305335
      dz2     :     2.031721  d :    10.167549
      dxz     :     2.034889
      dyz     :     2.029131
      dx2y2   :     2.036014
      dxy     :     2.035794
      f0      :     0.008808  f :     0.075074
      f+1     :     0.011430
      f-1     :     0.007870
      f+2     :     0.009988
      f-2     :     0.009403
      f+3     :     0.013980
      f-3     :     0.013595
  9 Cls       :     5.947138  s :     5.947138
      pz      :     3.926422  p :    11.567227
      px      :     3.829696
      py      :     3.811109
      dz2     :     0.002917  d :     0.020295
      dxz     :     0.002814
      dyz     :     0.001836
      dx2y2   :     0.004114
      dxy     :     0.008614
      f0      :     0.000102  f :     0.001077
      f+1     :     0.000135
      f-1     :     0.000087
      f+2     :     0.000027
      f-2     :     0.000169
      f+3     :     0.000224
      f-3     :     0.000333
 10 Cls       :     5.954426  s :     5.954426
      pz      :     3.859169  p :    11.573630
      px      :     3.922061
      py      :     3.792400
      dz2     :     0.006258  d :     0.025353
      dxz     :     0.002199
      dyz     :     0.005900
      dx2y2   :     0.006706
      dxy     :     0.004291
      f0      :     0.000166  f :     0.001148
      f+1     :     0.000043
      f-1     :     0.000167
      f+2     :     0.000207
      f-2     :     0.000108
      f+3     :     0.000224
      f-3     :     0.000234
 11 Cls       :     5.951280  s :     5.951280
      pz      :     3.850513  p :    11.599399
      px      :     3.823944
      py      :     3.924943
      dz2     :     0.004874  d :     0.018336
      dxz     :     0.007944
      dyz     :     0.001707
      dx2y2   :     0.002096
      dxy     :     0.001715
      f0      :     0.000111  f :     0.000857
      f+1     :     0.000346
      f-1     :     0.000040
      f+2     :     0.000194
      f-2     :     0.000105
      f+3     :     0.000034
      f-3     :     0.000028


                     *******************************
                     * LOEWDIN POPULATION ANALYSIS *
                     *******************************

----------------------
LOEWDIN ATOMIC CHARGES
----------------------
   0 C :   -0.319169
   1 N :    0.149312
   2 H :    0.188545
   3 H :    0.167587
   4 H :    0.245407
   5 H :    0.132974
   6 H :    0.110024
   7 H :    0.129394
   8 Pb:   -0.225331
   9 Cl:   -0.188852
  10 Cl:   -0.142201
  11 Cl:   -0.247690

-------------------------------
LOEWDIN REDUCED ORBITAL CHARGES
-------------------------------
  0 C s       :     2.827778  s :     2.827778
      pz      :     1.096741  p :     3.124546
      px      :     0.994661
      py      :     1.033144
      dz2     :     0.032584  d :     0.325358
      dxz     :     0.072193
      dyz     :     0.087351
      dx2y2   :     0.056013
      dxy     :     0.077216
      f0      :     0.004326  f :     0.041487
      f+1     :     0.006360
      f-1     :     0.004699
      f+2     :     0.005425
      f-2     :     0.006671
      f+3     :     0.007192
      f-3     :     0.006813
  1 N s       :     2.970877  s :     2.970877
      pz      :     1.224811  p :     3.692804
      px      :     1.243569
      py      :     1.224425
      dz2     :     0.016539  d :     0.175426
      dxz     :     0.042903
      dyz     :     0.047368
      dx2y2   :     0.028522
      dxy     :     0.040094
      f0      :     0.001095  f :     0.011581
      f+1     :     0.002092
      f-1     :     0.001595
      f+2     :     0.000953
      f-2     :     0.001839
      f+3     :     0.002698
      f-3     :     0.001310
  2 H s       :     0.697147  s :     0.697147
      pz      :     0.041555  p :     0.114308
      px      :     0.030601
      py      :     0.042152
  3 H s       :     0.703147  s :     0.703147
      pz      :     0.063233  p :     0.129266
      px      :     0.038922
      py      :     0.027111
  4 H s       :     0.671808  s :     0.671808
      pz      :     0.029233  p :     0.082785
      px      :     0.021771
      py      :     0.031780
  5 H s       :     0.800578  s :     0.800578
      pz      :     0.021168  p :     0.066448
      px      :     0.027904
      py      :     0.017376
  6 H s       :     0.819679  s :     0.819679
      pz      :     0.027808  p :     0.070296
      px      :     0.017011
      py      :     0.025478
  7 H s       :     0.804754  s :     0.804754
      pz      :     0.028203  p :     0.065852
      px      :     0.013313
      py      :     0.024336
  8 Pbs       :     3.687402  s :     3.687402
      pz      :     2.522385  p :     7.557199
      px      :     2.530244
      py      :     2.504570
      dz2     :     2.125230  d :    10.737877
      dxz     :     2.153159
      dyz     :     2.132857
      dx2y2   :     2.159153
      dxy     :     2.167479
      f0      :     0.025051  f :     0.242852
      f+1     :     0.041183
      f-1     :     0.022893
      f+2     :     0.037999
      f-2     :     0.026496
      f+3     :     0.040968
      f-3     :     0.048262
  9 Cls       :     5.730375  s :     5.730375
      pz      :     3.866527  p :    11.415116
      px      :     3.782261
      py      :     3.766328
      dz2     :     0.006559  d :     0.040776
      dxz     :     0.005027
      dyz     :     0.002824
      dx2y2   :     0.005859
      dxy     :     0.020506
      f0      :     0.000237  f :     0.002585
      f+1     :     0.000346
      f-1     :     0.000190
      f+2     :     0.000058
      f-2     :     0.000386
      f+3     :     0.000280
      f-3     :     0.001089
 10 Cls       :     5.708442  s :     5.708442
      pz      :     3.772760  p :    11.376574
      px      :     3.857978
      py      :     3.745836
      dz2     :     0.011877  d :     0.054057
      dxz     :     0.002761
      dyz     :     0.010629
      dx2y2   :     0.019184
      dxy     :     0.009607
      f0      :     0.000524  f :     0.003129
      f+1     :     0.000084
      f-1     :     0.000414
      f+2     :     0.000523
      f-2     :     0.000247
      f+3     :     0.000693
      f-3     :     0.000644
 11 Cls       :     5.751704  s :     5.751704
      pz      :     3.805733  p :    11.456682
      px      :     3.780573
      py      :     3.870375
      dz2     :     0.011191  d :     0.037185
      dxz     :     0.019578
      dyz     :     0.001800
      dx2y2   :     0.003115
      dxy     :     0.001502
      f0      :     0.000167  f :     0.002119
      f+1     :     0.001204
      f-1     :     0.000056
      f+2     :     0.000487
      f-2     :     0.000116
      f+3     :     0.000059
      f-3     :     0.000029


                      *****************************
                      * MAYER POPULATION ANALYSIS *
                      *****************************

  NA   - Mulliken gross atomic population
  ZA   - Total nuclear charge
  QA   - Mulliken gross atomic charge
  VA   - Mayer's total valence
  BVA  - Mayer's bonded valence
  FA   - Mayer's free valence

  ATOM       NA         ZA         QA         VA         BVA        FA
  0 C      6.2850     6.0000    -0.2850     3.7858     3.7858    -0.0000
  1 N      7.2640     7.0000    -0.2640     3.4884     3.4884     0.0000
  2 H      0.7069     1.0000     0.2931     0.9176     0.9176     0.0000
  3 H      0.6966     1.0000     0.3034     0.9787     0.9787    -0.0000
  4 H      0.6877     1.0000     0.3123     0.8985     0.8985     0.0000
  5 H      0.8061     1.0000     0.1939     0.9709     0.9709    -0.0000
  6 H      0.8575     1.0000     0.1425     0.9584     0.9584     0.0000
  7 H      0.8198     1.0000     0.1802     0.9761     0.9761    -0.0000
  8 Pb    21.2163    22.0000     0.7837     1.9921     1.9921     0.0000
  9 Cl    17.5357    17.0000    -0.5357     0.7953     0.7953    -0.0000
 10 Cl    17.5546    17.0000    -0.5546     0.7420     0.7420     0.0000
 11 Cl    17.5699    17.0000    -0.5699     0.7283     0.7283     0.0000

  Mayer bond orders larger than 0.1
B(  0-C ,  1-N ) :   0.8978 B(  0-C ,  5-H ) :   0.9623 B(  0-C ,  6-H ) :   0.9558 
B(  0-C ,  7-H ) :   0.9689 B(  1-N ,  2-H ) :   0.9003 B(  1-N ,  3-H ) :   0.8096 
B(  1-N ,  4-H ) :   0.8830 B(  3-H , 10-Cl) :   0.1243 B(  8-Pb,  9-Cl) :   0.7726 
B(  8-Pb, 10-Cl) :   0.5537 B(  8-Pb, 11-Cl) :   0.6567 

-------
TIMINGS
-------

Total SCF time: 0 days 0 hours 5 min 17 sec 

Total time                  ....     317.595 sec
Sum of individual times     ....     298.299 sec  ( 93.9%)

Fock matrix formation       ....     292.404 sec  ( 92.1%)
  Coulomb formation         ....     226.345 sec  ( 77.4% of F)
  Split-RI-J                ....      19.327 sec  (  6.6% of F)
  Chain of spheres X        ....     225.345 sec  ( 77.1% of F)
  COS-X 1 center corr.      ....       0.000 sec  (  0.0% of F)
  XC integration            ....      66.096 sec  ( 22.6% of F)
    Basis function eval.    ....      31.286 sec  ( 47.3% of XC)
    Density eval.           ....      12.396 sec  ( 18.8% of XC)
    XC-Functional eval.     ....       3.464 sec  (  5.2% of XC)
    XC-Potential eval.      ....      17.844 sec  ( 27.0% of XC)
Diagonalization             ....       0.603 sec  (  0.2%)
Density matrix formation    ....       0.043 sec  (  0.0%)
Population analysis         ....       0.068 sec  (  0.0%)
Initial guess               ....       0.116 sec  (  0.0%)
Orbital Transformation      ....       0.000 sec  (  0.0%)
Orbital Orthonormalization  ....       0.113 sec  (  0.0%)
DIIS solution               ....       0.153 sec  (  0.0%)
SOSCF solution              ....       0.069 sec  (  0.0%)
Grid generation             ....       4.843 sec  (  1.5%)

------------------------------------------------------------------------------
                              ORCA MP2 CALCULATION
------------------------------------------------------------------------------


----------------------
RI-MP2 ENERGY+GRADIENT
----------------------
Dimension of the basis                    ...  259
Memory devoted to MP2                     ... 1000 MB   
Data format for buffers                   ... DOUBLE
Compression type for matrix containers    ... UNCOMPRESSED
Overall scaling of the MP2 energy         ...   2.700e-01 Eh
Calculating two index integrals           ... done (    0.011 sec)
Cholesky decomposition of the V-matrix    ... done
Cholesky decomposition of V**-1           ... done (    0.020 sec)

-----------------
RI-TRANSFORMATION (AUX index driven)
-----------------

Dimension of the orbital-basis         ... 259
Dimension of the aux-basis             ... 493
Transformation of internal MOs         ...    0-  45
Transformation of internal/external MOs...    0-  45 to   46- 258
Number Format for Storage              ... Double (8 Byte)
Integral mode                          ... Direct

First Phase: integral generation and transformation of MO indices
  Aux angular momentum 0               ... done (    0.441 sec)
  Aux angular momentum 1               ... done (    0.319 sec)
  Aux angular momentum 2               ... done (    0.356 sec)
  Aux angular momentum 3               ... done (    0.198 sec)
  Aux angular momentum 4               ... done (    0.166 sec)
Closing buffer VIJ ( 0.00 GB; CompressionRatio= 1.95)
Closing buffer VIA ( 0.04 GB; CompressionRatio= 1.00)
  Phase 1 completed in     1.581 sec
Second Phase: sorting and transformation of aux index

IJ-Transformation
Memory available                       ... 990 MB 
Max. # MO pairs treated in a batch     ... 46    
# of internal orbitals                 ... 46
# batches for internal orbitals        ... 1
Closing buffer IJV ( 0.00 GB; CompressionRatio= 1.00)
(ij|v) transformation done in     0.087 sec

IA-Transformation
Memory available                       ... 990 MB 
Max. # MO pairs treated in a batch     ... 46    
# of internal orbitals                 ... 46
# batches for internal orbitals        ... 1
Closing buffer IAV ( 0.04 GB; CompressionRatio= 1.00)
(ia|v) transformation done in     0.339 sec

  Phase 2 completed in     0.451 sec
RI-Integral transformation completed in     2.033 sec
Opening buffers                              ... done

Starting loop over batches of integrals:

Operator 0  - window                       ... (  0- 45)x( 46-258)
Operator 0  - Memory available             ...  1000 MB
Operator 0  - Memory needed per MO         ...   1.6 MB
Operator 0  - Number of orbitals per batch ... 46
Operator 0  - Number of batches            ... 1

OPERATOR  0   PASS   0:  MOs     0 ...   45
  Reading integrals       ... ok
  Internal MO   2
  Internal MO   5
  Internal MO   8
  Internal MO  11
  Internal MO  14
  Internal MO  17
  Internal MO  20
  Internal MO  23
  Internal MO  26
  Internal MO  29
  Internal MO  32
  Internal MO  35
  Internal MO  38
  Internal MO  41
  Internal MO  44
Closing buffer GIPV ( 0.04 GB; CompressionRatio= 1.00)
Time spent in pair loops =    39.601 sec

-----------------------------------------------
 RI-MP2 CORRELATION ENERGY:     -0.579052161 Eh
-----------------------------------------------


---------------------
MP2 DENSITY FORMATION
---------------------

Completing the external part of the density      ... done
Storing the unrelaxed density                    ... done

Calculating the xc-kernel                        ... done
Calculating G(D)                                 ... done
Completing the Lagrangian                        ... done
Solving the Z-vector equations                   ... 

------------------------------------------------------------------------------
                           ORCA CP-SCF CALCULATION
------------------------------------------------------------------------------

Input orbitals are from        ... PbMACl3_mp2_md_19.orca.gbw
Input Perturbation             ... PbMACl3_mp2_md_19.orca.pin.tmp
Wavefunction output            ... PbMACl3_mp2_md_19.orca.pout.tmp
Perturbation mode              ... Real perturbation
Solver                         ... DIIS
   MaxDIIS                     ... 20
   Levelshift                  ...    3.000e-01 Eh
Max. number of iterations      ... 128
Convergence tolerance          ... 1.000e-08
Integral handling              ... Direct
COSX GridX                     ... 1
Number of perturbations        ... 1
Number of operators            ... 1
Orbital ranges used for CP-SCF:
 Operator 0:  Orbitals   0... 45  to  46...258
DFT calculation                         ... on
Exchange functional (SCF)               ... B88
Exchange functional (CP-SCF)            ... B88
   X-Alpha parameter    XAlpha (SCF)    ...  0.666667
   X-Alpha parameter    XAlpha (CP-SCF) ...  0.666667
   Becke's b parameter  XBeta (SCF)     ...  0.004200
   Becke's b parameter  XBeta (CP-SCF)  ...  0.004200
Correlation functional (SCF)            ... LYP
Correlation functional (CP-SCF)         ... LYP
 LDA part of GGA corr.  LDAOpt (SCF)    ... VWN-3
 LDA part of GGA corr.  LDAOpt (CP-SCF) ... VWN-3
Hybrid DFT                              ... on
   Exchange mixing (SCF)                ...  0.530
   Exchange mixing (CP-SCF)             ...  0.530
   GGA exch. scaling(SCF)               ...  0.470
   GGA exch. scaling (CP-SCF)           ...  0.470
   GGA corr. scaling (SCF)              ...  0.730
   GGA corr. scaling (CP-SCF)           ...  0.730
The RIJCOSX approximation is active
Variables per vector in CP-SCF ... 9798
Number of vectors sought       ... 1
Calculating the xc-kernel      ... done

Solving the CP-SCF equations by a DIIS algorithm

-----------------
CP-SCF ITERATIONS
-----------------
  Iteration   0: MaxR=  0.087989466
  Iteration   1: MaxR=  0.041673013
  Iteration   2: MaxR=  0.012448104
  Iteration   3: MaxR=  0.005609388
  Iteration   4: MaxR=  0.003025657
  Iteration   5: MaxR=  0.001324679
  Iteration   6: MaxR=  0.000554094
  Iteration   7: MaxR=  0.000166269
  Iteration   8: MaxR=  0.000067738
  Iteration   9: MaxR=  0.000025506
  Iteration  10: MaxR=  0.000012237
  Iteration  11: MaxR=  0.000004916
  Iteration  12: MaxR=  0.000001954
  Iteration  13: MaxR=  0.000000725
  Iteration  14: MaxR=  0.000000257
  Iteration  15: MaxR=  0.000000093
  Iteration  16: MaxR=  0.000000029
  Iteration  17: MaxR=  0.000000011
  Iteration  18: MaxR=  0.000000004
                              *** THE CP-SCF HAS CONVERGED *** 
done
Finalizing the relaxed density                   ... done
Transforming P to the AO basis                   ... done
Storing the relaxed density                      ... done

------------------------------------
ENERGY WEIGHTED DENSITY FINALIZATION
------------------------------------

Gathering the parts of the W-matrix              ... done
Forming the Z-density                            ... done
Transforming Z to the AO basis                   ... done
Calculating G(Z)                                 ... done
Finalizing the W-matrix                          ... done
Transforming W to the AO basis and storing       ... done
Entering the RIJONX and RIJCOSX sections
Starting the three-index derivative integrals:
Operator 0  - Memory available             ...  1000 MB
Operator 0  - Memory needed per MO         ...   1.0 MB
Operator 0  - Number of orbitals per batch ... 46
Operator 0  - Number of batches            ... 1

OPERATOR  0   PASS   0:  MOs     0 ...   45

----------------------------------
MP2 DERIVATIVE INTEGRAL GENERATION
----------------------------------


Input Correlated Electron Density   ... PbMACl3_mp2_md_19.orca.pmp2re
Input Energy Weighted Density       ... PbMACl3_mp2_md_19.orca.wmp2.tmp
Input SCF Electron Density          ... PbMACl3_mp2_md_19.orca.scfp.tmp

One-Electron Terms    ...
  ECP gradient                                           ... One-Electron Terms done

-----------------------------------------------------------
MP2 COSX Grid Generation
-----------------------------------------------------------

General Integration Accuracy     IntAcc      ...  4.340
Radial Grid Type                 RadialGrid  ... Gauss-Chebyshev
Angular Grid (max. acc.)         AngularGrid ... Lebedev-302
Angular grid pruning method      GridPruning ... 3 (G Style)
Weight generation scheme         WeightScheme... Becke
Basis function cutoff            BFCut       ...    1.0000e-11
Integration weight cutoff        WCut        ...    1.0000e-14
Grids for H and He will be reduced by one unit

# of grid points (after initial pruning)     ...  57718 (   0.0 sec)
# of grid points (after weights+screening)   ...  54528 (   0.1 sec)
nearest neighbour list constructed           ...    0.0 sec
Grid point re-assignment to atoms done       ...    0.0 sec
Grid point division into batches done        ...    0.2 sec
Reduced shell lists constructed in    1.4 sec

Total number of grid points                  ...    54528
Total number of batches                      ...      859
Average number of points per batch           ...       63
Average number of grid points per atom       ...     4544
Average number of shells per batch           ...    54.73 (54.19%)
Average number of basis functions per batch  ...   144.32 (55.72%)
Average number of large shells per batch     ...    41.26 (75.39%)
Average number of large basis fcns per batch ...   106.83 (74.02%)
Maximum spatial batch extension              ...  36.77, 31.54, 36.71 au
Average spatial batch extension              ...   3.19,  3.04,  3.23 au

Overlap Fitting                  UseSFitting ... on
Two electron COSX terms .... 
Integration Timings:
Total Time                  =    77.0 sec
Basis fcn evaluation        =     0.6 sec
Density evaluation          =     0.9 sec
Integral evaluation         =    73.8 sec
K(P) evaluation             =     0.7 sec
                          .... COSX two electron terms done
COSX two-electron contribution to the gradient
     0:    -0.045036    -0.097480     0.058279
     1:     0.026355     0.028196    -0.099078
     2:     0.090022    -0.142405     0.147444
     3:    -0.126922    -0.080126    -0.128023
     4:    -0.087080     0.132423     0.128877
     5:     0.132810    -0.073475    -0.092952
     6:     0.049486     0.114985     0.105991
     7:    -0.037000     0.118263    -0.117008
     8:    -0.025947     0.016774    -0.033480
     9:     0.061474    -0.054687     0.008639
    10:     0.009363     0.044023    -0.027821
    11:    -0.048095    -0.006613     0.049329
Exchange-correlation gradient    ... done
Dispersion correction            ... 
Entering the calculation of the dispersion correction...

Checking the input atom types...

Done
done

                *********************************************
                * UNRELAXED MP2 DENSITY POPULATION ANALYSIS *
                *********************************************

------------------------------------------------------------------------------
                           ORCA POPULATION ANALYSIS
------------------------------------------------------------------------------
Input electron density              ... PbMACl3_mp2_md_19.orca.pmp2ur
BaseName (.gbw .S,...)              ... PbMACl3_mp2_md_19.orca

                    ********************************
                    * MULLIKEN POPULATION ANALYSIS *
                    ********************************

-----------------------
MULLIKEN ATOMIC CHARGES
-----------------------
   0 C :   -0.289514
   1 N :   -0.263364
   2 H :    0.293336
   3 H :    0.301980
   4 H :    0.312002
   5 H :    0.194906
   6 H :    0.143417
   7 H :    0.181137
   8 Pb:    0.767689
   9 Cl:   -0.529407
  10 Cl:   -0.548508
  11 Cl:   -0.563673
Sum of atomic charges:    0.0000000

--------------------------------
MULLIKEN REDUCED ORBITAL CHARGES
--------------------------------
  0 C s       :     3.236337  s :     3.236337
      pz      :     1.058875  p :     2.965754
      px      :     0.908338
      py      :     0.998541
      dz2     :     0.009161  d :     0.079663
      dxz     :     0.016872
      dyz     :     0.024142
      dx2y2   :     0.013771
      dxy     :     0.015718
      f0      :     0.000570  f :     0.007760
      f+1     :     0.000798
      f-1     :     0.000893
      f+2     :     0.000889
      f-2     :     0.002200
      f+3     :     0.001092
      f-3     :     0.001318
  1 N s       :     3.429664  s :     3.429664
      pz      :     1.272614  p :     3.770573
      px      :     1.250312
      py      :     1.247647
      dz2     :     0.007269  d :     0.059559
      dxz     :     0.013262
      dyz     :     0.015932
      dx2y2   :     0.010456
      dxy     :     0.012639
      f0      :     0.000190  f :     0.003568
      f+1     :     0.000467
      f-1     :     0.000381
      f+2     :     0.000481
      f-2     :     0.001252
      f+3     :     0.000497
      f-3     :     0.000300
  2 H s       :     0.668718  s :     0.668718
      pz      :     0.014150  p :     0.037946
      px      :     0.009332
      py      :     0.014464
  3 H s       :     0.654772  s :     0.654772
      pz      :     0.020886  p :     0.043249
      px      :     0.013309
      py      :     0.009054
  4 H s       :     0.658193  s :     0.658193
      pz      :     0.010741  p :     0.029805
      px      :     0.008240
      py      :     0.010823
  5 H s       :     0.781197  s :     0.781197
      pz      :     0.007871  p :     0.023898
      px      :     0.010162
      py      :     0.005865
  6 H s       :     0.832267  s :     0.832267
      pz      :     0.009195  p :     0.024316
      px      :     0.005683
      py      :     0.009439
  7 H s       :     0.794525  s :     0.794525
      pz      :     0.010875  p :     0.024339
      px      :     0.004427
      py      :     0.009037
  8 Pbs       :     3.918772  s :     3.918772
      pz      :     2.383278  p :     7.062299
      px      :     2.364280
      py      :     2.314741
      dz2     :     2.026294  d :    10.139961
      dxz     :     2.029334
      dyz     :     2.023569
      dx2y2   :     2.030473
      dxy     :     2.030292
      f0      :     0.014032  f :     0.111280
      f+1     :     0.016484
      f-1     :     0.013098
      f+2     :     0.015136
      f-2     :     0.014649
      f+3     :     0.019203
      f-3     :     0.018677
  9 Cls       :     5.942497  s :     5.942497
      pz      :     3.912041  p :    11.524236
      px      :     3.815340
      py      :     3.796854
      dz2     :     0.010586  d :     0.058886
      dxz     :     0.010592
      dyz     :     0.009531
      dx2y2   :     0.011914
      dxy     :     0.016264
      f0      :     0.000482  f :     0.003788
      f+1     :     0.000520
      f-1     :     0.000463
      f+2     :     0.000414
      f-2     :     0.000558
      f+3     :     0.000625
      f-3     :     0.000726
 10 Cls       :     5.949879  s :     5.949879
      pz      :     3.844216  p :    11.529446
      px      :     3.907364
      py      :     3.777866
      dz2     :     0.014287  d :     0.065223
      dxz     :     0.010123
      dyz     :     0.013916
      dx2y2   :     0.014623
      dxy     :     0.012273
      f0      :     0.000573  f :     0.003960
      f+1     :     0.000435
      f-1     :     0.000583
      f+2     :     0.000605
      f-2     :     0.000507
      f+3     :     0.000623
      f-3     :     0.000633
 11 Cls       :     5.946663  s :     5.946663
      pz      :     3.836043  p :    11.556264
      px      :     3.809662
      py      :     3.910558
      dz2     :     0.012712  d :     0.057183
      dxz     :     0.015668
      dyz     :     0.009535
      dx2y2   :     0.009808
      dxy     :     0.009461
      f0      :     0.000509  f :     0.003563
      f+1     :     0.000739
      f-1     :     0.000430
      f+2     :     0.000578
      f-2     :     0.000494
      f+3     :     0.000410
      f-3     :     0.000403


                     *******************************
                     * LOEWDIN POPULATION ANALYSIS *
                     *******************************

----------------------
LOEWDIN ATOMIC CHARGES
----------------------
   0 C :   -0.321971
   1 N :    0.148545
   2 H :    0.188679
   3 H :    0.166978
   4 H :    0.245115
   5 H :    0.133710
   6 H :    0.110672
   7 H :    0.130058
   8 Pb:   -0.236022
   9 Cl:   -0.184319
  10 Cl:   -0.138321
  11 Cl:   -0.243123

-------------------------------
LOEWDIN REDUCED ORBITAL CHARGES
-------------------------------
  0 C s       :     2.827204  s :     2.827204
      pz      :     1.093850  p :     3.117017
      px      :     0.992422
      py      :     1.030745
      dz2     :     0.034558  d :     0.334445
      dxz     :     0.073993
      dyz     :     0.089317
      dx2y2   :     0.057621
      dxy     :     0.078955
      f0      :     0.004565  f :     0.043304
      f+1     :     0.006564
      f-1     :     0.004955
      f+2     :     0.005676
      f-2     :     0.007046
      f+3     :     0.007401
      f-3     :     0.007097
  1 N s       :     2.970334  s :     2.970334
      pz      :     1.221377  p :     3.682138
      px      :     1.239753
      py      :     1.221009
      dz2     :     0.018555  d :     0.186077
      dxz     :     0.045128
      dyz     :     0.049622
      dx2y2   :     0.030454
      dxy     :     0.042317
      f0      :     0.001271  f :     0.012907
      f+1     :     0.002270
      f-1     :     0.001772
      f+2     :     0.001137
      f-2     :     0.002093
      f+3     :     0.002868
      f-3     :     0.001496
  2 H s       :     0.695705  s :     0.695705
      pz      :     0.042046  p :     0.115616
      px      :     0.030946
      py      :     0.042624
  3 H s       :     0.702421  s :     0.702421
      pz      :     0.063690  p :     0.130601
      px      :     0.039377
      py      :     0.027534
  4 H s       :     0.670753  s :     0.670753
      pz      :     0.029717  p :     0.084132
      px      :     0.022186
      py      :     0.032229
  5 H s       :     0.798112  s :     0.798112
      pz      :     0.021668  p :     0.068178
      px      :     0.028594
      py      :     0.017916
  6 H s       :     0.817103  s :     0.817103
      pz      :     0.028561  p :     0.072226
      px      :     0.017522
      py      :     0.026143
  7 H s       :     0.802270  s :     0.802270
      pz      :     0.028855  p :     0.067673
      px      :     0.013807
      py      :     0.025010
  8 Pbs       :     3.670600  s :     3.670600
      pz      :     2.530005  p :     7.579715
      px      :     2.537582
      py      :     2.512129
      dz2     :     2.119316  d :    10.707098
      dxz     :     2.146887
      dyz     :     2.126590
      dx2y2   :     2.153013
      dxy     :     2.161293
      f0      :     0.030279  f :     0.278609
      f+1     :     0.046139
      f-1     :     0.028116
      f+2     :     0.043039
      f-2     :     0.031729
      f+3     :     0.046076
      f-3     :     0.053230
  9 Cls       :     5.726026  s :     5.726026
      pz      :     3.852511  p :    11.373549
      px      :     3.768503
      py      :     3.752535
      dz2     :     0.014269  d :     0.079373
      dxz     :     0.012753
      dyz     :     0.010487
      dx2y2   :     0.013580
      dxy     :     0.028282
      f0      :     0.000622  f :     0.005372
      f+1     :     0.000742
      f-1     :     0.000572
      f+2     :     0.000447
      f-2     :     0.000785
      f+3     :     0.000696
      f-3     :     0.001507
 10 Cls       :     5.704188  s :     5.704188
      pz      :     3.758538  p :    11.334216
      px      :     3.843714
      py      :     3.731963
      dz2     :     0.019852  d :     0.093887
      dxz     :     0.010737
      dyz     :     0.018673
      dx2y2   :     0.027112
      dxy     :     0.017512
      f0      :     0.000947  f :     0.006031
      f+1     :     0.000481
      f-1     :     0.000841
      f+2     :     0.000939
      f-2     :     0.000654
      f+3     :     0.001107
      f-3     :     0.001061
 11 Cls       :     5.747330  s :     5.747330
      pz      :     3.791814  p :    11.414861
      px      :     3.766746
      py      :     3.856300
      dz2     :     0.018965  d :     0.076047
      dxz     :     0.027394
      dyz     :     0.009591
      dx2y2   :     0.010864
      dxy     :     0.009233
      f0      :     0.000572  f :     0.004886
      f+1     :     0.001622
      f-1     :     0.000449
      f+2     :     0.000888
      f-2     :     0.000511
      f+3     :     0.000438
      f-3     :     0.000406


                      *****************************
                      * MAYER POPULATION ANALYSIS *
                      *****************************

  NA   - Mulliken gross atomic population
  ZA   - Total nuclear charge
  QA   - Mulliken gross atomic charge
  VA   - Mayer's total valence
  BVA  - Mayer's bonded valence
  FA   - Mayer's free valence

  ATOM       NA         ZA         QA         VA         BVA        FA
  0 C      6.2895     6.0000    -0.2895     3.8335     3.7206     0.1130
  1 N      7.2634     7.0000    -0.2634     3.5565     3.4223     0.1342
  2 H      0.7067     1.0000     0.2933     0.9194     0.9032     0.0162
  3 H      0.6980     1.0000     0.3020     0.9818     0.9619     0.0199
  4 H      0.6880     1.0000     0.3120     0.9004     0.8808     0.0196
  5 H      0.8051     1.0000     0.1949     0.9729     0.9556     0.0173
  6 H      0.8566     1.0000     0.1434     0.9615     0.9432     0.0183
  7 H      0.8189     1.0000     0.1811     0.9784     0.9600     0.0184
  8 Pb    21.2323    22.0000     0.7677     2.3054     1.9324     0.3730
  9 Cl    17.5294    17.0000    -0.5294     1.0314     0.7706     0.2608
 10 Cl    17.5485    17.0000    -0.5485     0.9816     0.7196     0.2620
 11 Cl    17.5637    17.0000    -0.5637     0.9676     0.7056     0.2620

  Mayer bond orders larger than 0.1
B(  0-C ,  1-N ) :   0.8771 B(  0-C ,  5-H ) :   0.9478 B(  0-C ,  6-H ) :   0.9414 
B(  0-C ,  7-H ) :   0.9538 B(  1-N ,  2-H ) :   0.8867 B(  1-N ,  3-H ) :   0.7963 
B(  1-N ,  4-H ) :   0.8661 B(  3-H , 10-Cl) :   0.1218 B(  8-Pb,  9-Cl) :   0.7494 
B(  8-Pb, 10-Cl) :   0.5370 B(  8-Pb, 11-Cl) :   0.6367 


                *******************************************
                * RELAXED MP2 DENSITY POPULATION ANALYSIS *
                *******************************************

------------------------------------------------------------------------------
                           ORCA POPULATION ANALYSIS
------------------------------------------------------------------------------
Input electron density              ... PbMACl3_mp2_md_19.orca.pmp2re
BaseName (.gbw .S,...)              ... PbMACl3_mp2_md_19.orca

                    ********************************
                    * MULLIKEN POPULATION ANALYSIS *
                    ********************************

-----------------------
MULLIKEN ATOMIC CHARGES
-----------------------
   0 C :   -0.309338
   1 N :   -0.260357
   2 H :    0.293850
   3 H :    0.294608
   4 H :    0.310080
   5 H :    0.198668
   6 H :    0.147425
   7 H :    0.184742
   8 Pb:    0.713644
   9 Cl:   -0.506664
  10 Cl:   -0.524986
  11 Cl:   -0.541671
Sum of atomic charges:    0.0000000

--------------------------------
MULLIKEN REDUCED ORBITAL CHARGES
--------------------------------
  0 C s       :     3.239662  s :     3.239662
      pz      :     1.064727  p :     2.986198
      px      :     0.915589
      py      :     1.005881
      dz2     :     0.009088  d :     0.075870
      dxz     :     0.015987
      dyz     :     0.022539
      dx2y2   :     0.013752
      dxy     :     0.014505
      f0      :     0.000556  f :     0.007608
      f+1     :     0.000790
      f-1     :     0.000877
      f+2     :     0.000880
      f-2     :     0.002145
      f+3     :     0.001077
      f-3     :     0.001282
  1 N s       :     3.430435  s :     3.430435
      pz      :     1.273712  p :     3.768597
      px      :     1.248781
      py      :     1.246104
      dz2     :     0.007363  d :     0.057824
      dxz     :     0.012621
      dyz     :     0.015269
      dx2y2   :     0.010548
      dxy     :     0.012023
      f0      :     0.000185  f :     0.003501
      f+1     :     0.000464
      f-1     :     0.000377
      f+2     :     0.000474
      f-2     :     0.001210
      f+3     :     0.000499
      f-3     :     0.000291
  2 H s       :     0.668664  s :     0.668664
      pz      :     0.013928  p :     0.037486
      px      :     0.009307
      py      :     0.014251
  3 H s       :     0.662540  s :     0.662540
      pz      :     0.020644  p :     0.042852
      px      :     0.013113
      py      :     0.009095
  4 H s       :     0.660508  s :     0.660508
      pz      :     0.010579  p :     0.029412
      px      :     0.008198
      py      :     0.010635
  5 H s       :     0.777838  s :     0.777838
      pz      :     0.007764  p :     0.023494
      px      :     0.009866
      py      :     0.005863
  6 H s       :     0.828608  s :     0.828608
      pz      :     0.009029  p :     0.023967
      px      :     0.005703
      py      :     0.009235
  7 H s       :     0.791322  s :     0.791322
      pz      :     0.010642  p :     0.023936
      px      :     0.004488
      py      :     0.008806
  8 Pbs       :     3.933081  s :     3.933081
      pz      :     2.392795  p :     7.104052
      px      :     2.378542
      py      :     2.332715
      dz2     :     2.025821  d :    10.139921
      dxz     :     2.028477
      dyz     :     2.024462
      dx2y2   :     2.030642
      dxy     :     2.030518
      f0      :     0.013834  f :     0.109302
      f+1     :     0.016038
      f-1     :     0.012884
      f+2     :     0.014899
      f-2     :     0.014473
      f+3     :     0.018936
      f-3     :     0.018237
  9 Cls       :     5.943120  s :     5.943120
      pz      :     3.904174  p :    11.500995
      px      :     3.808273
      py      :     3.788548
      dz2     :     0.010513  d :     0.058754
      dxz     :     0.010674
      dyz     :     0.009547
      dx2y2   :     0.011962
      dxy     :     0.016059
      f0      :     0.000483  f :     0.003795
      f+1     :     0.000520
      f-1     :     0.000463
      f+2     :     0.000415
      f-2     :     0.000561
      f+3     :     0.000629
      f-3     :     0.000724
 10 Cls       :     5.950182  s :     5.950182
      pz      :     3.833203  p :    11.505271
      px      :     3.900607
      py      :     3.771461
      dz2     :     0.014476  d :     0.065560
      dxz     :     0.010128
      dyz     :     0.013768
      dx2y2   :     0.014740
      dxy     :     0.012449
      f0      :     0.000578  f :     0.003973
      f+1     :     0.000437
      f-1     :     0.000585
      f+2     :     0.000604
      f-2     :     0.000509
      f+3     :     0.000625
      f-3     :     0.000635
 11 Cls       :     5.947333  s :     5.947333
      pz      :     3.828632  p :    11.533683
      px      :     3.801798
      py      :     3.903254
      dz2     :     0.012847  d :     0.057084
      dxz     :     0.015516
      dyz     :     0.009553
      dx2y2   :     0.009729
      dxy     :     0.009439
      f0      :     0.000513  f :     0.003571
      f+1     :     0.000736
      f-1     :     0.000432
      f+2     :     0.000577
      f-2     :     0.000498
      f+3     :     0.000410
      f-3     :     0.000404


                     *******************************
                     * LOEWDIN POPULATION ANALYSIS *
                     *******************************

----------------------
LOEWDIN ATOMIC CHARGES
----------------------
   0 C :   -0.331209
   1 N :    0.144852
   2 H :    0.189266
   3 H :    0.165378
   4 H :    0.245251
   5 H :    0.135553
   6 H :    0.112563
   7 H :    0.131824
   8 Pb:   -0.264768
   9 Cl:   -0.171290
  10 Cl:   -0.127147
  11 Cl:   -0.230273

-------------------------------
LOEWDIN REDUCED ORBITAL CHARGES
-------------------------------
  0 C s       :     2.828685  s :     2.828685
      pz      :     1.097376  p :     3.129465
      px      :     0.996913
      py      :     1.035177
      dz2     :     0.034563  d :     0.330030
      dxz     :     0.072984
      dyz     :     0.087704
      dx2y2   :     0.057495
      dxy     :     0.077284
      f0      :     0.004533  f :     0.043028
      f+1     :     0.006556
      f-1     :     0.004935
      f+2     :     0.005631
      f-2     :     0.006962
      f+3     :     0.007381
      f-3     :     0.007031
  1 N s       :     2.971889  s :     2.971889
      pz      :     1.222600  p :     3.684767
      px      :     1.240175
      py      :     1.221992
      dz2     :     0.018779  d :     0.185535
      dxz     :     0.044859
      dyz     :     0.049284
      dx2y2   :     0.030696
      dxy     :     0.041918
      f0      :     0.001276  f :     0.012956
      f+1     :     0.002290
      f-1     :     0.001778
      f+2     :     0.001137
      f-2     :     0.002085
      f+3     :     0.002883
      f-3     :     0.001508
  2 H s       :     0.695433  s :     0.695433
      pz      :     0.041857  p :     0.115301
      px      :     0.030952
      py      :     0.042492
  3 H s       :     0.703908  s :     0.703908
      pz      :     0.063731  p :     0.130715
      px      :     0.039300
      py      :     0.027684
  4 H s       :     0.670903  s :     0.670903
      pz      :     0.029612  p :     0.083846
      px      :     0.022184
      py      :     0.032051
  5 H s       :     0.796221  s :     0.796221
      pz      :     0.021673  p :     0.068226
      px      :     0.028477
      py      :     0.018076
  6 H s       :     0.814939  s :     0.814939
      pz      :     0.028646  p :     0.072498
      px      :     0.017721
      py      :     0.026131
  7 H s       :     0.800354  s :     0.800354
      pz      :     0.028833  p :     0.067822
      px      :     0.014024
      py      :     0.024965
  8 Pbs       :     3.683591  s :     3.683591
      pz      :     2.534217  p :     7.603657
      px      :     2.546092
      py      :     2.523348
      dz2     :     2.117746  d :    10.701381
      dxz     :     2.144691
      dyz     :     2.126650
      dx2y2   :     2.152281
      dxy     :     2.160014
      f0      :     0.029930  f :     0.276138
      f+1     :     0.045747
      f-1     :     0.027710
      f+2     :     0.042713
      f-2     :     0.031409
      f+3     :     0.045785
      f-3     :     0.052844
  9 Cls       :     5.729134  s :     5.729134
      pz      :     3.846030  p :    11.356245
      px      :     3.763779
      py      :     3.746436
      dz2     :     0.014451  d :     0.080443
      dxz     :     0.012865
      dyz     :     0.010569
      dx2y2   :     0.013721
      dxy     :     0.028837
      f0      :     0.000628  f :     0.005467
      f+1     :     0.000758
      f-1     :     0.000581
      f+2     :     0.000447
      f-2     :     0.000796
      f+3     :     0.000713
      f-3     :     0.001542
 10 Cls       :     5.707490  s :     5.707490
      pz      :     3.750591  p :    11.318010
      px      :     3.839035
      py      :     3.728384
      dz2     :     0.020121  d :     0.095511
      dxz     :     0.010828
      dyz     :     0.019021
      dx2y2   :     0.027728
      dxy     :     0.017813
      f0      :     0.000967  f :     0.006137
      f+1     :     0.000483
      f-1     :     0.000848
      f+2     :     0.000965
      f-2     :     0.000665
      f+3     :     0.001120
      f-3     :     0.001088
 11 Cls       :     5.750345  s :     5.750345
      pz      :     3.786464  p :    11.398033
      px      :     3.760998
      py      :     3.850571
      dz2     :     0.019166  d :     0.076934
      dxz     :     0.027917
      dyz     :     0.009667
      dx2y2   :     0.010926
      dxy     :     0.009258
      f0      :     0.000576  f :     0.004962
      f+1     :     0.001656
      f-1     :     0.000453
      f+2     :     0.000910
      f-2     :     0.000518
      f+3     :     0.000441
      f-3     :     0.000408


                      *****************************
                      * MAYER POPULATION ANALYSIS *
                      *****************************

  NA   - Mulliken gross atomic population
  ZA   - Total nuclear charge
  QA   - Mulliken gross atomic charge
  VA   - Mayer's total valence
  BVA  - Mayer's bonded valence
  FA   - Mayer's free valence

  ATOM       NA         ZA         QA         VA         BVA        FA
  0 C      6.3093     6.0000    -0.3093     3.8302     3.7174     0.1128
  1 N      7.2604     7.0000    -0.2604     3.5584     3.4245     0.1339
  2 H      0.7062     1.0000     0.2938     0.9199     0.9038     0.0161
  3 H      0.7054     1.0000     0.2946     0.9926     0.9729     0.0197
  4 H      0.6899     1.0000     0.3101     0.9017     0.8821     0.0195
  5 H      0.8013     1.0000     0.1987     0.9730     0.9558     0.0172
  6 H      0.8526     1.0000     0.1474     0.9608     0.9426     0.0182
  7 H      0.8153     1.0000     0.1847     0.9789     0.9606     0.0183
  8 Pb    21.2864    22.0000     0.7136     2.3890     2.0222     0.3668
  9 Cl    17.5067    17.0000    -0.5067     1.0727     0.8134     0.2592
 10 Cl    17.5250    17.0000    -0.5250     1.0268     0.7662     0.2606
 11 Cl    17.5417    17.0000    -0.5417     1.0077     0.7472     0.2605

  Mayer bond orders larger than 0.1
B(  0-C ,  1-N ) :   0.8853 B(  0-C ,  5-H ) :   0.9448 B(  0-C ,  6-H ) :   0.9376 
B(  0-C ,  7-H ) :   0.9501 B(  1-N ,  2-H ) :   0.8849 B(  1-N ,  3-H ) :   0.7906 
B(  1-N ,  4-H ) :   0.8649 B(  3-H , 10-Cl) :   0.1329 B(  8-Pb,  9-Cl) :   0.7857 
B(  8-Pb, 10-Cl) :   0.5578 B(  8-Pb, 11-Cl) :   0.6665 


-------
TIMINGS
-------

Total time                :  457.945 sec
Integral trafo            :    2.043 sec (  0.4%)
I/O of integrals          :    0.115 sec (  0.0%)
K(i,j) Operators          :    5.502 sec (  1.2%)
T(i,j) pair energies      :    1.037 sec (  0.2%)
V-calculation             :    0.011 sec (  0.0%)
V**(-1/2)                 :    0.020 sec (  0.0%)
Gamma(ia|P)               :    5.133 sec (  1.1%)
Gamma-Trafo               :    0.724 sec (  0.2%)
D(virtual)                :    2.350 sec (  0.5%)
D(internal)               :    3.451 sec (  0.8%)
W(virtual)                :    4.698 sec (  1.0%)
W(internal)               :   11.740 sec (  2.6%)
L(virtual)                :    4.410 sec (  1.0%)
L(internal)               :    0.214 sec (  0.0%)
G(D)                      :   12.519 sec (  2.7%)
G(Z)                      :   12.611 sec (  2.8%)
Z-Vector Solution         :  295.380 sec ( 64.5%)
Z-Vector Solution         :  295.380 sec ( 64.5%)
3-Index Derivative 
+ Separable RIJ part      :    3.798 sec (  0.8%)
2-Index Derivative 
+ Separable RIJ part      :    0.025 sec (  0.0%)
Separable Gradient (COSX) :   89.831 sec ( 19.6%)


---------------------------------------
MP2 TOTAL ENERGY:    -1669.548298430 Eh
---------------------------------------

The final MP2 gradient
  0:  -0.01516470  -0.02789413   0.03627587
  1:   0.03071249  -0.06431799  -0.03652438
  2:  -0.01010329   0.04141257  -0.02190729
  3:   0.00461021   0.00415278   0.01098129
  4:  -0.00792858   0.03272778   0.03115019
  5:   0.00209895   0.01381722  -0.00812340
  6:  -0.02006178  -0.00950956  -0.02694767
  7:   0.01390469   0.00453302   0.00522658
  8:   0.03628014   0.05338732   0.03350415
  9:  -0.02615095   0.00798610  -0.01200543
 10:  -0.01177690  -0.04456767   0.01245559
 11:   0.00301566  -0.01188073  -0.02388609

-----------------------------------
NORM OF THE MP2 GRADIENT:  0.155569
-----------------------------------

Entering the calculation of the dispersion correction...

Checking the input atom types...

Done


-------------------------------------------------------------------------------
                          DFT DISPERSION CORRECTION                            
                                                                               
                                DFTD3 V2.1  Rev 6                               
                          USING Becke-Johnson damping                          
-------------------------------------------------------------------------------
The B2PLYP functional is recognized
Active option DFTDOPT                   ...         4   

molecular C6(AA) [au] = 4868.731662 


            DFT-D V3
 parameters
 s6 scaling factor         :     0.6400 
 a1 scaling factor         :     0.3065 
 s8 scaling factor         :     0.9147 
 a2 scaling factor         :     5.0570 
 ad hoc parameters k1-k3   :    16.0000     1.3333    -4.0000 

 Edisp/kcal,au: -8.005119527919  -0.012756968627 
 E6   /kcal   :  -3.659574465 
 E8   /kcal   :  -4.345545063 
 % E8         :  54.284574364 

-------------------------   ----------------
Dispersion correction           -0.012756969
-------------------------   ----------------


-------------------------   --------------------
FINAL SINGLE POINT ENERGY     -1669.561055398870
-------------------------   --------------------


                            ***************************************
                            *     ORCA property calculations      *
                            ***************************************


  WARNING: The energy has been calculated at the MP2 level but the densities
           used in the property calculations are still SCF densities
           MP2 response densities have not been calculated 
           use %mp2 Density relaxed end
           or  %mp2 Density unrelaxed end

                                    ---------------------
                                    Active property flags
                                    ---------------------
   (+) Dipole Moment


------------------------------------------------------------------------------
                       ORCA ELECTRIC PROPERTIES CALCULATION
------------------------------------------------------------------------------

Dipole Moment Calculation                       ... on
Quadrupole Moment Calculation                   ... off
Polarizability Calculation                      ... off
GBWName                                         ... PbMACl3_mp2_md_19.orca.gbw
Electron density file                           ... PbMACl3_mp2_md_19.orca.scfp.tmp

-------------
DIPOLE MOMENT
-------------
                                X             Y             Z
Electronic contribution:    -39.95474     -73.79052     -56.56457
Nuclear contribution   :     40.90750      77.84948      58.21348
                        -----------------------------------------
Total Dipole Moment    :      0.95276       4.05897       1.64891
                        -----------------------------------------
Magnitude (a.u.)       :      4.48351
Magnitude (Debye)      :     11.39618


                         *** MP2 UNRELAXED DENSITY ***

------------------------------------------------------------------------------
                       ORCA ELECTRIC PROPERTIES CALCULATION
------------------------------------------------------------------------------

Dipole Moment Calculation                       ... on
Quadrupole Moment Calculation                   ... off
Polarizability Calculation                      ... off
GBWName                                         ... PbMACl3_mp2_md_19.orca.gbw
Electron density file                           ... PbMACl3_mp2_md_19.orca.pmp2ur

-------------
DIPOLE MOMENT
-------------
                                X             Y             Z
Electronic contribution:    -39.95354     -73.80028     -56.56291
Nuclear contribution   :     40.90750      77.84948      58.21348
                        -----------------------------------------
Total Dipole Moment    :      0.95396       4.04921       1.65058
                        -----------------------------------------
Magnitude (a.u.)       :      4.47555
Magnitude (Debye)      :     11.37594


                           *** MP2 RELAXED DENSITY ***

------------------------------------------------------------------------------
                       ORCA ELECTRIC PROPERTIES CALCULATION
------------------------------------------------------------------------------

Dipole Moment Calculation                       ... on
Quadrupole Moment Calculation                   ... off
Polarizability Calculation                      ... off
GBWName                                         ... PbMACl3_mp2_md_19.orca.gbw
Electron density file                           ... PbMACl3_mp2_md_19.orca.pmp2re

-------------
DIPOLE MOMENT
-------------
                                X             Y             Z
Electronic contribution:    -39.97842     -73.86422     -56.59645
Nuclear contribution   :     40.90750      77.84948      58.21348
                        -----------------------------------------
Total Dipole Moment    :      0.92908       3.98526       1.61703
                        -----------------------------------------
Magnitude (a.u.)       :      4.40003
Magnitude (Debye)      :     11.18399


Timings for individual modules:

Sum of individual times         ...      783.513 sec (=  13.059 min)
GTO integral calculation        ...        3.796 sec (=   0.063 min)   0.5 %
SCF iterations                  ...      320.596 sec (=   5.343 min)  40.9 %
MP2 module                      ...      459.121 sec (=   7.652 min)  58.6 %
                             ****ORCA TERMINATED NORMALLY****
TOTAL RUN TIME: 0 days 0 hours 13 minutes 5 seconds 18 msec
