
                                 *****************
                                 * O   R   C   A *
                                 *****************

           --- An Ab Initio, DFT and Semiempirical electronic structure package ---

                  #######################################################
                  #                        -***-                        #
                  #  Department of molecular theory and spectroscopy    #
                  #              Directorship: Frank Neese              #
                  # Max Planck Institute for Chemical Energy Conversion #
                  #                  D-45470 Muelheim/Ruhr              #
                  #                       Germany                       #
                  #                                                     #
                  #                  All rights reserved                #
                  #                        -***-                        #
                  #######################################################


                         Program Version 3.0.3 - RELEASE   -


 With contributions from (in alphabetic order):
   Ute Becker             : Parallelization
   Dmytro Bykov           : SCF Hessian
   Dmitry Ganyushin       : Spin-Orbit,Spin-Spin,Magnetic field MRCI
   Andreas Hansen         : Spin unrestricted coupled pair/coupled cluster methods
   Dimitrios Liakos       : Extrapolation schemes; parallel MDCI
   Robert Izsak           : Overlap fitted RIJCOSX, COSX-SCS-MP3
   Christian Kollmar      : KDIIS, OOCD, Brueckner-CCSD(T), CCSD density
   Simone Kossmann        : Meta GGA functionals, TD-DFT gradient, OOMP2, MP2 Hessian
   Taras Petrenko         : DFT Hessian,TD-DFT gradient, ASA and ECA modules, normal mode analysis, Resonance Raman, ABS, FL, XAS/XES, NRVS
   Christoph Reimann      : Effective Core Potentials
   Michael Roemelt        : Restricted open shell CIS
   Christoph Riplinger    : Improved optimizer, TS searches, QM/MM, DLPNO-CCSD
   Barbara Sandhoefer     : DKH picture change effects
   Igor Schapiro          : Molecular dynamics
   Kantharuban Sivalingam : CASSCF convergence, NEVPT2
   Boris Wezisla          : Elementary symmetry handling
   Frank Wennmohs         : Technical directorship


 We gratefully acknowledge several colleagues who have allowed us to
 interface, adapt or use parts of their codes:
   Stefan Grimme, W. Hujo, H. Kruse, T. Risthaus : VdW corrections, initial TS optimization,
                                                   DFT functionals, gCP
   Ed Valeev                                     : LibInt (2-el integral package), F12 methods
   Garnet Chan, S. Sharma, R. Olivares           : DMRG
   Ulf Ekstrom                                   : XCFun DFT Library
   Mihaly Kallay                                 : mrcc  (arbitrary order and MRCC methods)
   Andreas Klamt, Michael Diedenhofen            : otool_cosmo (COSMO solvation model)
   Frank Weinhold                                : gennbo (NPA and NBO analysis)
   Christopher J. Cramer and Donald G. Truhlar   : smd solvation model


 Your calculation uses the libint2 library for the computation of 2-el integrals
 For citations please refer to: http://libint.valeyev.net

 This ORCA versions uses:
   CBLAS   interface :  Fast vector & matrix operations
   LAPACKE interface :  Fast linear algebra routines
   SCALAPACK package :  Parallel linear algebra routines


Your calculation utilizes the basis: Ahlrichs-TZV
Cite in your paper:
H - Kr: A. Schaefer, H. Horn and R. Ahlrichs, J. Chem. Phys. 97, 2571 (1992).

The def2-TZV basis will be loaded
Cite in your paper:
 	F. Weigend, R. Ahlrichs, Phys. Chem. Chem. Phys. 2005, 7, 3297.

Your calculation utilizes the atom-pairwise dispersion correction
with the Becke-Johnson damping scheme (D3BJ)
Cite in your paper:
S.Grimme, S.Ehrlich, L.Goerigk, J Comput Chem, (2011), 32, 1456–1465 
S.Grimme, J.Antony, S.Ehrlich and H.Krieg, J.Chem.Phys., 132, (2010), 154104 
   

================================================================================
                                        WARNINGS
                       Please study these warnings very carefully!
================================================================================

WARNING: The RI method has been chosen with no auxiliary basis (AUX or GTOAUX in BASIS block)
        Standard TZV/J expansion basis used (GTOAUX=TZV_J)

Now building the actual basis set
cite the ECPs for Pb [SD(60,MDF)] as follows:
  B. Metz, H. Stoll, M. Dolg, J. Chem. Phys. 113, 2563 (2000).

ECP parameters for Pb [SD(60,MDF)] have been obtained from:
  pseudopotential library of the Stuttgart/Cologne group
  http://www.theochem.uni-stuttgart.de/pseudopotentials/

cite the ECP basis sets for Pb [DEF2-TZVP] as follows:
  F. Weigend, R. Ahlrichs; Phys. Chem. Chem. Phys. 7, 3297(2005).

ECP basis sets for Pb [DEF2-TZVP] have been obtained from:
  Turbomole basis set library
  ftp://ftp.chemie.uni-karlsruhe.de/pub/basen/



INFO   : the flag for use of LIBINT has been found!

================================================================================
                                       INPUT FILE
================================================================================
NAME = Pb2Cl11_6NH3CH3_-1_mp2_sp2_1.orca
|  1> ! RIJCOSX RI-B2PLYP D3BJ def2-TZVP ECP{def2-TZVP} TIGHTSCF Grid5 FinalGrid6 MORead
|  2> %maxcore 4000
|  3> %moinp "previous.gbw"
|  4> *xyz -1 1
|  5> C 3.321334 3.304660 2.430157 
|  6> N 2.356571 2.328752 1.891132 
|  7> H 3.929482 2.825089 3.202898 
|  8> H 2.779051 4.148026 2.867131 
|  9> H 3.970752 3.667461 1.628343 
| 10> H 1.712427 1.919960 2.626954 
| 11> H 2.798301 1.476145 1.466883 
| 12> H 1.726191 2.717573 1.143366 
| 13> Pb 0.007794 -0.208190 0.739388 
| 14> Cl 2.755167 -0.548961 0.799661 
| 15> Cl 0.243251 2.905072 -0.298223 
| 16> Cl 0.350388 0.655578 3.500524 
| 17> Cl -3.310074 -0.279264 -0.032157 
| 18> Cl 0.030921 -1.151231 -2.200648 
| 19> Cl -0.574203 -2.753401 1.827181 
| 20> N -2.185808 -3.054212 -0.959335 
| 21> C -3.018599 -3.892984 -1.852407 
| 22> H -2.697680 -2.199715 -0.614166 
| 23> H -1.345672 -2.675212 -1.453465 
| 24> H -3.863008 -4.284793 -1.282203 
| 25> H -2.403708 -4.719219 -2.215644 
| 26> H -3.366846 -3.277457 -2.686457 
| 27> H -1.855008 -3.591944 -0.148281 
| 28> Cl 3.306059 -4.814199 1.506354 
| 29> Cl 1.006223 -5.246504 4.862392 
| 30> Pb 0.310082 -5.492838 1.484168 
| 31> N 2.161285 -2.658962 3.515767 
| 32> C 3.006676 -1.740565 4.311813 
| 33> H 2.698023 -3.156655 2.770259 
| 34> H 1.390718 -2.163400 3.045648 
| 35> H 3.799912 -2.319606 4.793333 
| 36> H 2.384520 -1.246095 5.060700 
| 37> H 3.427402 -0.991699 3.638613 
| 38> H 1.731703 -3.427574 4.095222 
| 39> Cl 0.332708 -5.424149 -1.291112 
| 40> H -2.444419 -8.567556 -2.232135 
| 41> H -0.598109 -7.323819 -1.165277 
| 42> H -1.004862 -9.612620 -2.073837 
| 43> C -1.775778 -9.065444 -1.523604 
| 44> N -1.147567 -8.055720 -0.651573 
| 45> Cl -2.538728 -5.969955 1.056720 
| 46> H -1.842497 -7.478800 -0.094428 
| 47> H -0.483324 -8.457680 0.056334 
| 48> H -2.352281 -9.766255 -0.913124 
| 49> Cl 0.872104 -8.635740 1.615290 
| 50> H -3.020852 1.137851 -3.759427 
| 51> H -2.443836 0.935457 -1.388789 
| 52> C -2.421148 1.915242 -3.276964 
| 53> H -3.072919 2.741318 -2.978333 
| 54> N -1.760461 1.345922 -2.088558 
| 55> H -1.130632 0.530708 -2.323343 
| 56> H -1.666594 2.281032 -3.979276 
| 57> H -1.165922 2.035435 -1.571092 
| 58> H 3.622704 -8.508951 4.939340 
| 59> H 2.344608 -7.817453 2.937850 
| 60> C 4.032137 -7.791101 4.222778 
| 61> H 4.696529 -8.309487 3.525223 
| 62> N 2.932785 -7.146076 3.481813 
| 63> H 2.277052 -6.592786 4.110347 
| 64> H 4.597499 -7.025510 4.762093 
| 65> H 3.269849 -6.425562 2.787786 
| 66> *
| 67> 
| 68>                          ****END OF INPUT****
================================================================================

                       ****************************
                       * Single Point Calculation *
                       ****************************

---------------------------------
CARTESIAN COORDINATES (ANGSTROEM)
---------------------------------
  C      3.321334    3.304660    2.430157
  N      2.356571    2.328752    1.891132
  H      3.929482    2.825089    3.202898
  H      2.779051    4.148026    2.867131
  H      3.970752    3.667461    1.628343
  H      1.712427    1.919960    2.626954
  H      2.798301    1.476145    1.466883
  H      1.726191    2.717573    1.143366
  Pb     0.007794   -0.208190    0.739388
  Cl     2.755167   -0.548961    0.799661
  Cl     0.243251    2.905072   -0.298223
  Cl     0.350388    0.655578    3.500524
  Cl    -3.310074   -0.279264   -0.032157
  Cl     0.030921   -1.151231   -2.200648
  Cl    -0.574203   -2.753401    1.827181
  N     -2.185808   -3.054212   -0.959335
  C     -3.018599   -3.892984   -1.852407
  H     -2.697680   -2.199715   -0.614166
  H     -1.345672   -2.675212   -1.453465
  H     -3.863008   -4.284793   -1.282203
  H     -2.403708   -4.719219   -2.215644
  H     -3.366846   -3.277457   -2.686457
  H     -1.855008   -3.591944   -0.148281
  Cl     3.306059   -4.814199    1.506354
  Cl     1.006223   -5.246504    4.862392
  Pb     0.310082   -5.492838    1.484168
  N      2.161285   -2.658962    3.515767
  C      3.006676   -1.740565    4.311813
  H      2.698023   -3.156655    2.770259
  H      1.390718   -2.163400    3.045648
  H      3.799912   -2.319606    4.793333
  H      2.384520   -1.246095    5.060700
  H      3.427402   -0.991699    3.638613
  H      1.731703   -3.427574    4.095222
  Cl     0.332708   -5.424149   -1.291112
  H     -2.444419   -8.567556   -2.232135
  H     -0.598109   -7.323819   -1.165277
  H     -1.004862   -9.612620   -2.073837
  C     -1.775778   -9.065444   -1.523604
  N     -1.147567   -8.055720   -0.651573
  Cl    -2.538728   -5.969955    1.056720
  H     -1.842497   -7.478800   -0.094428
  H     -0.483324   -8.457680    0.056334
  H     -2.352281   -9.766255   -0.913124
  Cl     0.872104   -8.635740    1.615290
  H     -3.020852    1.137851   -3.759427
  H     -2.443836    0.935457   -1.388789
  C     -2.421148    1.915242   -3.276964
  H     -3.072919    2.741318   -2.978333
  N     -1.760461    1.345922   -2.088558
  H     -1.130632    0.530708   -2.323343
  H     -1.666594    2.281032   -3.979276
  H     -1.165922    2.035435   -1.571092
  H      3.622704   -8.508951    4.939340
  H      2.344608   -7.817453    2.937850
  C      4.032137   -7.791101    4.222778
  H      4.696529   -8.309487    3.525223
  N      2.932785   -7.146076    3.481813
  H      2.277052   -6.592786    4.110347
  H      4.597499   -7.025510    4.762093
  H      3.269849   -6.425562    2.787786

----------------------------
CARTESIAN COORDINATES (A.U.)
----------------------------
  NO LB      ZA    FRAG    MASS        X           Y           Z
   0 C     6.0000    0    12.011          6.276411659281206          6.244902365724204          4.592331192431667
   1 N     7.0000    0    14.007          4.453273805140938          4.400703513821383          3.573721563094765
   2 H     1.0000    0     1.008          7.425644828173148          5.338644513953455          6.052600054884109
   3 H     1.0000    0     1.008          5.251645302199988          7.838633136384834          5.418092380075772
   4 H     1.0000    0     1.008          7.503633825720078          6.930496896836967          3.077122322087733
   5 H     1.0000    0     1.008          3.236018054332367          3.628198588083447          4.964223626408968
   6 H     1.0000    0     1.008          5.288022530277972          2.789509783957186          2.772007140504807
   7 H     1.0000    0     1.008          3.262028244839660          5.135468718938777          2.160648610837006
   8 Pb   22.0000*   0   207.200  0.014728525487782  -0.393422083821065  1.397240826707767
   9 Cl   17.0000    0    35.453          5.206511083217413         -1.037385948203544          1.511140289977602
  10 Cl   17.0000    0    35.453          0.459677771802478          5.489790479322878         -0.563559796836397
  11 Cl   17.0000    0    35.453          0.662137360612399          1.238862879423826          6.615031685218556
  12 Cl   17.0000    0    35.453         -6.255133343013253         -0.527732479063384         -0.060767923288506
  13 Cl   17.0000    0    35.453          0.058432221786979         -2.175511306880296         -4.158622037161535
  14 Cl   17.0000    0    35.453         -1.085086415275984         -5.203173826864909          3.452871687104366
  15 N     7.0000    0    14.007         -4.130578501334144         -5.771624234935894         -1.812880420685344
  16 C     6.0000    0    12.011         -5.704325418128557         -7.356673603737290         -3.500541918558664
  17 H     1.0000    0     1.008         -5.097876396956682         -4.156858922678586         -1.160605540765880
  18 H     1.0000    0     1.008         -2.542951546086079         -5.055418030179740         -2.746650795239852
  19 H     1.0000    0     1.008         -7.300027173146867         -8.097085310542841         -2.423012518092230
  20 H     1.0000    0     1.008         -4.542349825915584         -8.918031475997715         -4.186960370265818
  21 H     1.0000    0     1.008         -6.362416875088230         -6.193496145703143         -5.076668000555684
  22 H     1.0000    0     1.008         -3.505457096232993         -6.787790448381636         -0.280210480863977
  23 Cl   17.0000    0    35.453          6.247546092585559         -9.097517664197557          2.846596520736813
  24 Cl   17.0000    0    35.453          1.901485899652644         -9.914455720522382          9.188589235769623
  25 Pb   22.0000*   0   207.200  0.585970059058570  -10.379959517995740  2.804671056729636
  26 N     7.0000    0    14.007          4.084236747351992         -5.024709980503519          6.643836780677917
  27 C     6.0000    0    12.011          5.681794213433814         -3.289191168288643          8.148145710681394
  28 H     1.0000    0     1.008          5.098524573020617         -5.965213449273189          5.235030830030552
  29 H     1.0000    0     1.008          2.628076149514695         -4.088233518125236          5.755440620324992
  30 H     1.0000    0     1.008          7.180793013000971         -4.383420078600539          9.058086638687154
  31 H     1.0000    0     1.008          4.506089760857903         -2.354778286848602          9.563337045935278
  32 H     1.0000    0     1.008          6.476851130853966         -1.874039517283571          6.875982077325607
  33 H     1.0000    0     1.008          3.272444415289833         -6.477176163749000          7.738848037609255
  34 Cl   17.0000    0    35.453          0.628727002564672        -10.250156119582822         -2.439848088219335
  35 H     1.0000    0     1.008         -4.619282466553652        -16.190334477033822         -4.218123843940313
  36 H     1.0000    0     1.008         -1.130262208233506        -13.840012164409009         -2.202054400157354
  37 H     1.0000    0     1.008         -1.898913982384377        -18.165219229454102         -3.918983976392847
  38 C     6.0000    0    12.011         -3.355734094642413        -17.131206442399606         -2.879194296546955
  39 N     7.0000    0    14.007         -2.168587350325609        -15.223104611552108         -1.231294526257472
  40 Cl   17.0000    0    35.453         -4.797500648517631        -11.281579981833845          1.996911400237265
  41 H     1.0000    0     1.008         -3.481814732571504        -14.132883810370256         -0.178443059373916
  42 H     1.0000    0     1.008         -0.913349993951355        -15.982698928343092          0.106455832028320
  43 H     1.0000    0     1.008         -4.445166880026416        -18.455547304039094         -1.725554286310709
  44 Cl   17.0000    0    35.453          1.648037720297259        -16.319183563749110          3.052455726861659
  45 H     1.0000    0     1.008         -5.708582971108281          2.150226771208430         -7.104287450469170
  46 H     1.0000    0     1.008         -4.618180756217576          1.767757540059572         -2.624430867802361
  47 C     6.0000    0    12.011         -4.575306649691171          3.619282860183606         -6.192564510719120
  48 H     1.0000    0     1.008         -5.806975341723159          5.180340265988738         -5.628233705620083
  49 N     7.0000    0    14.007         -3.326789159449141          2.543423977619559         -3.946802634810302
  50 H     1.0000    0     1.008         -2.136584838247653          1.002892777081080         -4.390481985163002
  51 H     1.0000    0     1.008         -3.149406236436354          4.310525782710661         -7.519741851285623
  52 H     1.0000    0     1.008         -2.203273273513733          3.846414713398003         -2.968933611194607
  53 H     1.0000    0     1.008          6.845918424261054        -16.079587076955367          9.333999882322594
  54 H     1.0000    0     1.008          4.430667011400838        -14.772845234801091          5.551731922540549
  55 C     6.0000    0    12.011          7.619634664450833        -14.723047171719998          7.979893944347715
  56 H     1.0000    0     1.008          8.875153590019043        -15.702654743378901          6.661706031000277
  57 N     7.0000    0    14.007          5.542160459672238        -13.504126572187442          6.579673019526755
  58 H     1.0000    0     1.008          4.303004672697654        -12.458559999550154          7.767430145384815
  59 H     1.0000    0     1.008          8.688014010976820        -13.276289851125092          8.999051594263456
  60 H     1.0000    0     1.008          6.179119109276271        -12.142552436531306          5.268152059979791
* core charge reduced due to ECP

--------------------------------
INTERNAL COORDINATES (ANGSTROEM)
--------------------------------
 C      0   0   0   0.000000     0.000     0.000
 N      1   0   0   1.474351     0.000     0.000
 H      1   2   0   1.094057   109.379     0.000
 H      1   2   3   1.093747   109.392   240.247
 H      1   2   3   1.093743   109.882   120.181
 H      2   1   3   1.059937   113.525    58.337
 H      2   1   3   1.049786   114.205   300.796
 H      2   1   3   1.052480   114.026   179.570
 Pb     6   2   1   3.316278    99.482   182.542
 Cl     7   2   1   2.132627   152.767   159.762
 Cl     8   2   1   2.076643   162.607   182.404
 Cl     6   2   1   2.053518   159.369   194.696
 Cl     9   6   2   3.407137   130.003   243.533
 Cl     9   6   2   3.087665   137.233     3.170
 Cl     9   6   2   2.828447   117.667   139.332
 N     13   9   6   3.134321    74.702   192.356
 C     16  13   9   1.481437   118.552   194.067
 H     16  13   9   1.054191     8.638   146.596
 H     16  13   9   1.045770    96.147   313.047
 H     17  16  13   1.091638   108.854   288.857
 H     17  16  13   1.092106   108.201   169.652
 H     17  16  13   1.093521   108.670    49.544
 H     16  13   9   1.027810   110.195    64.473
 Cl    10   7   2   4.358343   151.165   269.072
 Cl    24  10   7   4.091347    99.518    52.465
 Pb    15   9   6   2.898988   137.908   253.119
 N     25  24  10   3.137346    49.746   343.952
 C     27  25  24   1.480482   119.411   235.992
 H     27  25  24   1.044781    95.885   356.214
 H     27  25  24   1.029741   108.504   106.074
 H     28  27  25   1.093789   108.810    51.181
 H     28  27  25   1.091975   108.924   290.599
 H     28  27  25   1.091334   108.308   171.712
 H     27  25  24   1.054075     9.106   189.782
 Cl    26  15   9   2.776222    95.589   316.095
 H     21  17  16   3.848588   138.761   122.863
 H     35  26  15   2.119198    85.117   223.914
 H     36  21  17   1.785929   125.185   216.379
 C     38  36  21   1.093832    35.291    87.016
 N     37  35  26   1.049512   152.147    20.661
 Cl    23  16  13   2.752169   135.857   117.185
 H     40  37  35   1.061214   102.750    37.059
 H     40  37  35   1.050677   105.403   286.717
 H     39  38  36   1.093699   109.375   119.736
 Cl    43  40  37   2.073459   162.308    55.161
 H     13   9   6   3.998050    97.659   103.740
 H     13   9   6   2.016523    73.827    86.462
 C     46  13   9   1.093962    83.130   310.008
 H     48  46  13   1.093795   109.295   269.414
 N     47  13   9   1.060735   162.491    40.286
 H     50  47  13   1.056590   103.419    16.549
 H     48  46  13   1.093799   109.429   149.512
 H     50  47  13   1.047223   107.131   264.580
 H     25  24  10   4.182757    75.278   201.516
 H     45  43  40   2.141734   151.753   339.485
 C     54  25  24   1.093803    73.155    15.783
 H     56  54  25   1.093949   109.516   202.306
 N     55  45  43   1.045273   162.484    17.132
 H     58  55  45   1.063565   107.143    60.578
 H     56  54  25   1.093903   109.256    82.500
 H     58  55  45   1.055664   106.017   310.744

---------------------------
INTERNAL COORDINATES (A.U.)
---------------------------
 C      0   0   0   0.000000     0.000     0.000
 N      1   0   0   2.786120     0.000     0.000
 H      1   2   0   2.067468   109.379     0.000
 H      1   2   3   2.066883   109.392   240.247
 H      1   2   3   2.066875   109.882   120.181
 H      2   1   3   2.002991   113.525    58.337
 H      2   1   3   1.983809   114.205   300.796
 H      2   1   3   1.988899   114.026   179.570
 Pb     6   2   1   6.266858    99.482   182.542
 Cl     7   2   1   4.030082   152.767   159.762
 Cl     8   2   1   3.924286   162.607   182.404
 Cl     6   2   1   3.880587   159.369   194.696
 Cl     9   6   2   6.438555   130.003   243.533
 Cl     9   6   2   5.834841   137.233     3.170
 Cl     9   6   2   5.344990   117.667   139.332
 N     13   9   6   5.923009    74.702   192.356
 C     16  13   9   2.799511   118.552   194.067
 H     16  13   9   1.992133     8.638   146.596
 H     16  13   9   1.976218    96.147   313.047
 H     17  16  13   2.062897   108.854   288.857
 H     17  16  13   2.063782   108.201   169.652
 H     17  16  13   2.066456   108.670    49.544
 H     16  13   9   1.942279   110.195    64.473
 Cl    10   7   2   8.236074   151.165   269.072
 Cl    24  10   7   7.731526    99.518    52.465
 Pb    15   9   6   5.478294   137.908   253.119
 N     25  24  10   5.928725    49.746   343.952
 C     27  25  24   2.797706   119.411   235.992
 H     27  25  24   1.974351    95.885   356.214
 H     27  25  24   1.945929   108.504   106.074
 H     28  27  25   2.066961   108.810    51.181
 H     28  27  25   2.063535   108.924   290.599
 H     28  27  25   2.062322   108.308   171.712
 H     27  25  24   1.991912     9.106   189.782
 Cl    26  15   9   5.246299    95.589   316.095
 H     21  17  16   7.272777   138.761   122.863
 H     35  26  15   4.004704    85.117   223.914
 H     36  21  17   3.374916   125.185   216.379
 C     38  36  21   2.067044    35.291    87.016
 N     37  35  26   1.983290   152.147    20.661
 Cl    23  16  13   5.200847   135.857   117.185
 H     40  37  35   2.005404   102.750    37.059
 H     40  37  35   1.985492   105.403   286.717
 H     39  38  36   2.066792   109.375   119.736
 Cl    43  40  37   3.918271   162.308    55.161
 H     13   9   6   7.555220    97.659   103.740
 H     13   9   6   3.810677    73.827    86.462
 C     46  13   9   2.067288    83.130   310.008
 H     48  46  13   2.066973   109.295   269.414
 N     47  13   9   2.004499   162.491    40.286
 H     50  47  13   1.996666   103.419    16.549
 H     48  46  13   2.066981   109.429   149.512
 H     50  47  13   1.978965   107.131   264.580
 H     25  24  10   7.904265    75.278   201.516
 H     45  43  40   4.047292   151.753   339.485
 C     54  25  24   2.066988    73.155    15.783
 H     56  54  25   2.067263   109.516   202.306
 N     55  45  43   1.975279   162.484    17.132
 H     58  55  45   2.009847   107.143    60.578
 H     56  54  25   2.067178   109.256    82.500
 H     58  55  45   1.994915   106.017   310.744

---------------------
BASIS SET INFORMATION
---------------------
There are 5 groups of distinct atoms

 Group   1 Type C   : 11s6p2d1f contracted to 5s3p2d1f pattern {62111/411/11/1}
 Group   2 Type N   : 11s6p2d1f contracted to 5s3p2d1f pattern {62111/411/11/1}
 Group   3 Type H   : 5s1p contracted to 3s1p pattern {311/1}
 Group   4 Type Pb  : 10s9p8d2f contracted to 6s5p3d2f pattern {421111/33111/611/11}
 Group   5 Type Cl  : 14s9p3d1f contracted to 5s5p2d1f pattern {73211/51111/21/1}

Atom   0C    basis set group =>   1
Atom   1N    basis set group =>   2
Atom   2H    basis set group =>   3
Atom   3H    basis set group =>   3
Atom   4H    basis set group =>   3
Atom   5H    basis set group =>   3
Atom   6H    basis set group =>   3
Atom   7H    basis set group =>   3
Atom   8Pb   basis set group =>   4
Atom   9Cl   basis set group =>   5
Atom  10Cl   basis set group =>   5
Atom  11Cl   basis set group =>   5
Atom  12Cl   basis set group =>   5
Atom  13Cl   basis set group =>   5
Atom  14Cl   basis set group =>   5
Atom  15N    basis set group =>   2
Atom  16C    basis set group =>   1
Atom  17H    basis set group =>   3
Atom  18H    basis set group =>   3
Atom  19H    basis set group =>   3
Atom  20H    basis set group =>   3
Atom  21H    basis set group =>   3
Atom  22H    basis set group =>   3
Atom  23Cl   basis set group =>   5
Atom  24Cl   basis set group =>   5
Atom  25Pb   basis set group =>   4
Atom  26N    basis set group =>   2
Atom  27C    basis set group =>   1
Atom  28H    basis set group =>   3
Atom  29H    basis set group =>   3
Atom  30H    basis set group =>   3
Atom  31H    basis set group =>   3
Atom  32H    basis set group =>   3
Atom  33H    basis set group =>   3
Atom  34Cl   basis set group =>   5
Atom  35H    basis set group =>   3
Atom  36H    basis set group =>   3
Atom  37H    basis set group =>   3
Atom  38C    basis set group =>   1
Atom  39N    basis set group =>   2
Atom  40Cl   basis set group =>   5
Atom  41H    basis set group =>   3
Atom  42H    basis set group =>   3
Atom  43H    basis set group =>   3
Atom  44Cl   basis set group =>   5
Atom  45H    basis set group =>   3
Atom  46H    basis set group =>   3
Atom  47C    basis set group =>   1
Atom  48H    basis set group =>   3
Atom  49N    basis set group =>   2
Atom  50H    basis set group =>   3
Atom  51H    basis set group =>   3
Atom  52H    basis set group =>   3
Atom  53H    basis set group =>   3
Atom  54H    basis set group =>   3
Atom  55C    basis set group =>   1
Atom  56H    basis set group =>   3
Atom  57N    basis set group =>   2
Atom  58H    basis set group =>   3
Atom  59H    basis set group =>   3
Atom  60H    basis set group =>   3
-------------------------------
AUXILIARY BASIS SET INFORMATION
-------------------------------
There are 5 groups of distinct atoms

 Group   1 Type C   : 12s5p4d2f1g contracted to 6s4p3d1f1g pattern {711111/2111/211/2/1}
 Group   2 Type N   : 12s5p4d2f1g contracted to 6s4p3d1f1g pattern {711111/2111/211/2/1}
 Group   3 Type H   : 5s2p1d contracted to 3s1p1d pattern {311/2/1}
 Group   4 Type Pb  : 31s12p8d6f3g contracted to 31s12p8d6f3g pattern {1111111111111111111111111111111/111111111111/11111111/111111/111}
 Group   5 Type Cl  : 14s5p5d2f1g contracted to 8s4p3d1f1g pattern {71111111/2111/311/2/1}

Atom   0C    basis set group =>   1
Atom   1N    basis set group =>   2
Atom   2H    basis set group =>   3
Atom   3H    basis set group =>   3
Atom   4H    basis set group =>   3
Atom   5H    basis set group =>   3
Atom   6H    basis set group =>   3
Atom   7H    basis set group =>   3
Atom   8Pb   basis set group =>   4
Atom   9Cl   basis set group =>   5
Atom  10Cl   basis set group =>   5
Atom  11Cl   basis set group =>   5
Atom  12Cl   basis set group =>   5
Atom  13Cl   basis set group =>   5
Atom  14Cl   basis set group =>   5
Atom  15N    basis set group =>   2
Atom  16C    basis set group =>   1
Atom  17H    basis set group =>   3
Atom  18H    basis set group =>   3
Atom  19H    basis set group =>   3
Atom  20H    basis set group =>   3
Atom  21H    basis set group =>   3
Atom  22H    basis set group =>   3
Atom  23Cl   basis set group =>   5
Atom  24Cl   basis set group =>   5
Atom  25Pb   basis set group =>   4
Atom  26N    basis set group =>   2
Atom  27C    basis set group =>   1
Atom  28H    basis set group =>   3
Atom  29H    basis set group =>   3
Atom  30H    basis set group =>   3
Atom  31H    basis set group =>   3
Atom  32H    basis set group =>   3
Atom  33H    basis set group =>   3
Atom  34Cl   basis set group =>   5
Atom  35H    basis set group =>   3
Atom  36H    basis set group =>   3
Atom  37H    basis set group =>   3
Atom  38C    basis set group =>   1
Atom  39N    basis set group =>   2
Atom  40Cl   basis set group =>   5
Atom  41H    basis set group =>   3
Atom  42H    basis set group =>   3
Atom  43H    basis set group =>   3
Atom  44Cl   basis set group =>   5
Atom  45H    basis set group =>   3
Atom  46H    basis set group =>   3
Atom  47C    basis set group =>   1
Atom  48H    basis set group =>   3
Atom  49N    basis set group =>   2
Atom  50H    basis set group =>   3
Atom  51H    basis set group =>   3
Atom  52H    basis set group =>   3
Atom  53H    basis set group =>   3
Atom  54H    basis set group =>   3
Atom  55C    basis set group =>   1
Atom  56H    basis set group =>   3
Atom  57N    basis set group =>   2
Atom  58H    basis set group =>   3
Atom  59H    basis set group =>   3
Atom  60H    basis set group =>   3

-------------------------
ECP PARAMETER INFORMATION
-------------------------

 Group 1, Type Pb ECP SD(60,MDF) (replacing 60 core electrons, lmax=5)

Atom   8Pb   ECP group =>   1
Atom  25Pb   ECP group =>   1


------------------------------------------------------------------------------
                           ORCA GTO INTEGRAL CALCULATION
                           -- RI-GTO INTEGRALS CHOSEN --
------------------------------------------------------------------------------

                         BASIS SET STATISTICS AND STARTUP INFO

Gaussian basis set:
 # of primitive gaussian shells          ...  811
 # of primitive gaussian functions       ... 1715
 # of contracted shells                  ...  451
 # of contracted basis functions         ... 1095
 Highest angular momentum                ...    3
 Maximum contraction depth               ...    7
Auxiliary gaussian basis set:
 # of primitive gaussian shells          ...  993
 # of primitive gaussian functions       ... 2615
 # of contracted shells                  ...  667
 # of contracted aux-basis functions     ... 1897
 Highest angular momentum                ...    4
 Maximum contraction depth               ...    7
Ratio of auxiliary to basis functions    ...  1.73
Integral package used                  ... LIBINT
 One Electron integrals                  
   ECP integrals                         ... done
 Ordering auxiliary basis shells         ... done
 Integral threshhold             Thresh  ...  2.500e-11
 Primitive cut-off               TCut    ...  2.500e-12
 Pre-screening matrix                    ... done
 Shell pair data                         ... 
 Ordering of the shell pairs             ... done (   0.011 sec) 48307 of 101926 pairs
 Determination of significant pairs      ... done (   0.000 sec)
 Creation of shell pair data             ... done (   0.015 sec)
 Storage of shell pair data              ... done (   0.009 sec)
 Shell pair data done in (   0.035 sec)
 Computing two index integrals           ... done
 Cholesky decomposition of the V-matrix  ... done


Timings:
 Total evaluation time                   ...   6.643 sec (  0.111 min)
 One electron matrix time                ...   4.294 sec (  0.072 min) = 64.6%
 Schwartz matrix evaluation time         ...   1.929 sec (  0.032 min) = 29.0%
 Two index repulsion integral time       ...   0.137 sec (  0.002 min) =  2.1%
 Cholesky decomposition of V             ...   0.219 sec (  0.004 min) =  3.3%
 Three index repulsion integral time     ...   0.000 sec (  0.000 min) =  0.0%

-------------------------------------------------------------------------------
                                 ORCA SCF
-------------------------------------------------------------------------------

------------
SCF SETTINGS
------------
Hamiltonian:
 Density Functional     Method          .... DFT(GTOs)
 Exchange Functional    Exchange        .... B88
   X-Alpha parameter    XAlpha          ....  0.666667
   Becke's b parameter  XBeta           ....  0.004200
 Correlation Functional Correlation     .... LYP
 LDA part of GGA corr.  LDAOpt          .... VWN-3
 Gradients option       PostSCFGGA      .... off
 Hybrid DFT is turned on
   Fraction HF Exchange ScalHFX         ....  0.530000
   Scaling of DF-GGA-X  ScalDFX         ....  0.470000
   Scaling of DF-GGA-C  ScalDFC         ....  0.730000
   Scaling of DF-LDA-C  ScalLDAC        ....  0.730000
   Perturbative correction              ....  0.270000
 RI-approximation to the Coulomb term is turned on
   Number of auxiliary basis functions  .... 1897
   RIJ-COSX (HFX calculated with COS-X)).... on


General Settings:
 Integral files         IntName         .... Pb2Cl11_6NH3CH3_-1_mp2_sp2_1.orca
 Hartree-Fock type      HFTyp           .... RHF
 Total Charge           Charge          ....   -1
 Multiplicity           Mult            ....    1
 Number of Electrons    NEL             ....  346
 Basis Dimension        Dim             .... 1095
 Nuclear Repulsion      ENuc            ....   5900.4523982329 Eh

Convergence Acceleration:
 DIIS                   CNVDIIS         .... on
   Start iteration      DIISMaxIt       ....    12
   Startup error        DIISStart       ....  0.200000
   # of expansion vecs  DIISMaxEq       ....     5
   Bias factor          DIISBfac        ....   1.050
   Max. coefficient     DIISMaxC        ....  10.000
 Newton-Raphson         CNVNR           .... off
 SOSCF                  CNVSOSCF        .... on
   Start iteration      SOSCFMaxIt      ....   150
   Startup grad/error   SOSCFStart      ....  0.003300
 Level Shifting         CNVShift        .... on
   Level shift para.    LevelShift      ....    0.2500
   Turn off err/grad.   ShiftErr        ....    0.0010
 Zerner damping         CNVZerner       .... off
 Static damping         CNVDamp         .... on
   Fraction old density DampFac         ....    0.7000
   Max. Damping (<1)    DampMax         ....    0.9800
   Min. Damping (>=0)   DampMin         ....    0.0000
   Turn off err/grad.   DampErr         ....    0.1000
 Fernandez-Rico         CNVRico         .... off

SCF Procedure:
 Maximum # iterations   MaxIter         ....   125
 SCF integral mode      SCFMode         .... Direct
   Integral package                     .... LIBINT
 Reset frequeny         DirectResetFreq ....    20
 Integral Threshold     Thresh          ....  2.500e-11 Eh
 Primitive CutOff       TCut            ....  2.500e-12 Eh

Convergence Tolerance:
 Convergence Check Mode ConvCheckMode   .... Total+1el-Energy
 Energy Change          TolE            ....  1.000e-08 Eh
 1-El. energy change                    ....  1.000e-05 Eh
 Orbital Gradient       TolG            ....  1.000e-05
 Orbital Rotation angle TolX            ....  1.000e-05
 DIIS Error             TolErr          ....  5.000e-07


Diagonalization of the overlap matrix:
Smallest eigenvalue                        ... 8.207e-04
Time for diagonalization                   ...    0.582 sec
Threshold for overlap eigenvalues          ... 1.000e-08
Number of eigenvalues below threshold      ... 0
Time for construction of square roots      ...    0.318 sec
Total time needed                          ...    0.903 sec

---------------------
INITIAL GUESS: MOREAD
---------------------
Guess MOs are being read from file: previous.gbw
Input Geometry matches current geometry (good)
Input basis set matches current basis set (good)
MOs were renormalized
MOs were reorthogonalized (Cholesky)
                      ------------------
                      INITIAL GUESS DONE (   1.0 sec)
                      ------------------
-------------------
DFT GRID GENERATION
-------------------

General Integration Accuracy     IntAcc      ...  5.010
Radial Grid Type                 RadialGrid  ... Gauss-Chebyshev
Angular Grid (max. acc.)         AngularGrid ... Lebedev-434
Angular grid pruning method      GridPruning ... 3 (G Style)
Weight generation scheme         WeightScheme... Becke
Basis function cutoff            BFCut       ...    1.0000e-11
Integration weight cutoff        WCut        ...    1.0000e-14
Grids for H and He will be reduced by one unit

# of grid points (after initial pruning)     ... 536944 (   0.5 sec)
# of grid points (after weights+screening)   ... 471516 (  13.1 sec)
nearest neighbour list constructed           ...    0.0 sec
Grid point re-assignment to atoms done       ...    0.1 sec
Grid point division into batches done        ...    3.3 sec
Reduced shell lists constructed in   32.6 sec

Total number of grid points                  ...   471516
Total number of batches                      ...     7400
Average number of points per batch           ...       63
Average number of grid points per atom       ...     7730
Average number of shells per batch           ...   108.17 (23.98%)
Average number of basis functions per batch  ...   250.90 (22.91%)
Average number of large shells per batch     ...    63.62 (58.82%)
Average number of large basis fcns per batch ...   150.35 (59.92%)
Maximum spatial batch extension              ...  29.27, 29.28, 28.31 au
Average spatial batch extension              ...   1.80,  1.76,  1.80 au

Time for grid setup =   46.159 sec

--------------------
COSX GRID GENERATION
--------------------

General Integration Accuracy     IntAcc      ...  3.340
Radial Grid Type                 RadialGrid  ... Gauss-Chebyshev
Angular Grid (max. acc.)         AngularGrid ... Lebedev-50
Angular grid pruning method      GridPruning ... 3 (G Style)
Weight generation scheme         WeightScheme... Becke
Basis function cutoff            BFCut       ...    1.0000e-11
Integration weight cutoff        WCut        ...    1.0000e-14
Grids for H and He will be reduced by one unit

# of grid points (after initial pruning)     ...  28950 (   0.0 sec)
# of grid points (after weights+screening)   ...  26066 (   0.7 sec)
nearest neighbour list constructed           ...    0.0 sec
Grid point re-assignment to atoms done       ...    0.0 sec
Grid point division into batches done        ...    0.0 sec
Reduced shell lists constructed in    2.3 sec

Total number of grid points                  ...    26066
Total number of batches                      ...      439
Average number of points per batch           ...       59
Average number of grid points per atom       ...      427
Average number of shells per batch           ...   138.82 (30.78%)
Average number of basis functions per batch  ...   329.21 (30.06%)
Average number of large shells per batch     ...    81.83 (58.95%)
Average number of large basis fcns per batch ...   195.95 (59.52%)
Maximum spatial batch extension              ...  23.02, 21.23, 22.10 au
Average spatial batch extension              ...   4.53,  4.31,  4.58 au

Overlap Fitting                  UseSFitting ... on
Constructing numerical overlap ... done (      1.3 sec)
Inverting numerical overlap    ... done (      0.1 sec)
Obtaining analytic overlap     ... done (      0.0 sec)
Final contraction and storage  ... done (      0.2 sec)


General Integration Accuracy     IntAcc      ...  3.670
Radial Grid Type                 RadialGrid  ... Gauss-Chebyshev
Angular Grid (max. acc.)         AngularGrid ... Lebedev-50
Angular grid pruning method      GridPruning ... 3 (G Style)
Weight generation scheme         WeightScheme... Becke
Basis function cutoff            BFCut       ...    1.0000e-11
Integration weight cutoff        WCut        ...    1.0000e-14
Grids for H and He will be reduced by one unit

# of grid points (after initial pruning)     ...  36590 (   0.0 sec)
# of grid points (after weights+screening)   ...  32859 (   0.9 sec)
nearest neighbour list constructed           ...    0.0 sec
Grid point re-assignment to atoms done       ...    0.0 sec
Grid point division into batches done        ...    0.0 sec
Reduced shell lists constructed in    2.7 sec

Total number of grid points                  ...    32859
Total number of batches                      ...      539
Average number of points per batch           ...       60
Average number of grid points per atom       ...      539
Average number of shells per batch           ...   134.37 (29.79%)
Average number of basis functions per batch  ...   317.79 (29.02%)
Average number of large shells per batch     ...    79.37 (59.07%)
Average number of large basis fcns per batch ...   189.63 (59.67%)
Maximum spatial batch extension              ...  23.74, 22.66, 24.71 au
Average spatial batch extension              ...   4.27,  3.99,  4.26 au

Overlap Fitting                  UseSFitting ... on
Constructing numerical overlap ... done (      1.5 sec)
Inverting numerical overlap    ... done (      0.1 sec)
Obtaining analytic overlap     ... done (      0.0 sec)
Final contraction and storage  ... done (      0.2 sec)


General Integration Accuracy     IntAcc      ...  4.010
Radial Grid Type                 RadialGrid  ... Gauss-Chebyshev
Angular Grid (max. acc.)         AngularGrid ... Lebedev-110
Angular grid pruning method      GridPruning ... 3 (G Style)
Weight generation scheme         WeightScheme... Becke
Basis function cutoff            BFCut       ...    1.0000e-11
Integration weight cutoff        WCut        ...    1.0000e-14
Grids for H and He will be reduced by one unit

# of grid points (after initial pruning)     ...  66396 (   0.0 sec)
# of grid points (after weights+screening)   ...  59868 (   1.6 sec)
nearest neighbour list constructed           ...    0.0 sec
Grid point re-assignment to atoms done       ...    0.0 sec
Grid point division into batches done        ...    0.1 sec
Reduced shell lists constructed in    4.3 sec

Total number of grid points                  ...    59868
Total number of batches                      ...      967
Average number of points per batch           ...       61
Average number of grid points per atom       ...      981
Average number of shells per batch           ...   128.59 (28.51%)
Average number of basis functions per batch  ...   303.28 (27.70%)
Average number of large shells per batch     ...    76.15 (59.22%)
Average number of large basis fcns per batch ...   181.85 (59.96%)
Maximum spatial batch extension              ...  27.72, 21.88, 25.53 au
Average spatial batch extension              ...   3.75,  3.50,  3.72 au

Overlap Fitting                  UseSFitting ... on
Constructing numerical overlap ... done (      2.3 sec)
Inverting numerical overlap    ... done (      0.1 sec)
Obtaining analytic overlap     ... done (      0.0 sec)
Final contraction and storage  ... done (      0.2 sec)

Time for X-Grid setup             =   18.825 sec
--------------
SCF ITERATIONS
--------------
ITER       Energy         Delta-E        Max-DP      RMS-DP      [F,P]     Damp
               ***  Starting incremental Fock matrix formation  ***
                      *** Initiating the SOSCF procedure ***
                      *** Re-Reading the Fockian *** 
                      *** Removing any level shift *** 
ITER      Energy       Delta-E        Grad      Rot      Max-DP    RMS-DP
  0  -6023.63848233 -6023.6384823308  0.000001  0.000001  0.000006  0.000000
               *** Restarting incremental Fock matrix formation ***
                  ***Gradient check signals convergence***
              ***Rediagonalizing the Fockian in SOSCF/NRSCF***

               *****************************************************
               *                     SUCCESS                       *
               *           SCF CONVERGED AFTER   1 CYCLES          *
               *****************************************************

Old exchange energy                            =   -221.019794243 Eh
New exchange energy                            =   -221.032031893 Eh
Exchange energy change after final integration =     -0.012237650 Eh
Total energy after final integration           =  -6023.650719980 Eh
Final COS-X integration done in                =   440.681 sec

----------------
TOTAL SCF ENERGY
----------------

Total Energy       :        -6023.65071998 Eh         -163911.86921 eV

Components:
Nuclear Repulsion  :         5900.45239823 Eh          160559.47244 eV
Electronic Energy  :       -11924.10311821 Eh         -324471.34165 eV

One Electron Energy:       -20269.52610359 Eh         -551561.84614 eV
Two Electron Energy:         8345.42298538 Eh          227090.50449 eV

Virial components:
Potential Energy   :       -11780.45062519 Eh         -320562.35859 eV
Kinetic Energy     :         5756.79990521 Eh          156650.48938 eV
Virial Ratio       :            2.04635402


DFT components:
N(Alpha)           :      173.000064535420 electrons
N(Beta)            :      173.000064535420 electrons
N(Total)           :      346.000129070840 electrons
E(X)               :     -196.140467639454 Eh       
E(C)               :       -9.610254792825 Eh       
E(XC)              :     -205.750722432279 Eh       

---------------
SCF CONVERGENCE
---------------

  Last Energy change         ...    1.0432e-09  Tolerance :   1.0000e-08
  Last MAX-Density change    ...    1.6809e-13  Tolerance :   1.0000e-07
  Last RMS-Density change    ...    4.3286e-16  Tolerance :   5.0000e-09
  Last Orbital Gradient      ...    3.7310e-07  Tolerance :   1.0000e-05
  Last Orbital Rotation      ...    5.7454e-07  Tolerance :   1.0000e-05

             **** THE GBW FILE WAS UPDATED (Pb2Cl11_6NH3CH3_-1_mp2_sp2_1.orca.gbw) ****
             **** DENSITY FILE WAS UPDATED (Pb2Cl11_6NH3CH3_-1_mp2_sp2_1.orca.scfp.tmp) ****
             **** ENERGY FILE WAS UPDATED (Pb2Cl11_6NH3CH3_-1_mp2_sp2_1.orca.en.tmp) ****
----------------
ORBITAL ENERGIES
----------------

  NO   OCC          E(Eh)            E(eV) 
   0   2.0000    -102.758982     -2796.2141 
   1   2.0000    -102.741338     -2795.7339 
   2   2.0000    -102.738365     -2795.6530 
   3   2.0000    -102.735345     -2795.5709 
   4   2.0000    -102.734067     -2795.5361 
   5   2.0000    -102.729360     -2795.4080 
   6   2.0000    -102.727767     -2795.3647 
   7   2.0000    -102.727107     -2795.3467 
   8   2.0000    -102.722224     -2795.2138 
   9   2.0000    -102.719329     -2795.1350 
  10   2.0000    -102.716700     -2795.0635 
  11   2.0000     -14.843573      -403.9142 
  12   2.0000     -14.842374      -403.8815 
  13   2.0000     -14.833454      -403.6388 
  14   2.0000     -14.832110      -403.6022 
  15   2.0000     -14.830774      -403.5659 
  16   2.0000     -14.827022      -403.4638 
  17   2.0000     -10.614980      -288.8483 
  18   2.0000     -10.613114      -288.7975 
  19   2.0000     -10.605690      -288.5955 
  20   2.0000     -10.601130      -288.4714 
  21   2.0000     -10.582486      -287.9641 
  22   2.0000     -10.582238      -287.9573 
  23   2.0000      -9.766602      -265.7627 
  24   2.0000      -9.748196      -265.2619 
  25   2.0000      -9.745255      -265.1819 
  26   2.0000      -9.742476      -265.1063 
  27   2.0000      -9.741096      -265.0687 
  28   2.0000      -9.736177      -264.9349 
  29   2.0000      -9.734968      -264.9019 
  30   2.0000      -9.734172      -264.8803 
  31   2.0000      -9.729268      -264.7469 
  32   2.0000      -9.726443      -264.6700 
  33   2.0000      -9.723823      -264.5987 
  34   2.0000      -7.403378      -201.4561 
  35   2.0000      -7.402064      -201.4204 
  36   2.0000      -7.402041      -201.4198 
  37   2.0000      -7.385027      -200.9568 
  38   2.0000      -7.383942      -200.9273 
  39   2.0000      -7.383473      -200.9145 
  40   2.0000      -7.382080      -200.8766 
  41   2.0000      -7.380998      -200.8472 
  42   2.0000      -7.380547      -200.8349 
  43   2.0000      -7.378823      -200.7880 
  44   2.0000      -7.378684      -200.7842 
  45   2.0000      -7.377985      -200.7652 
  46   2.0000      -7.377572      -200.7539 
  47   2.0000      -7.377095      -200.7410 
  48   2.0000      -7.376552      -200.7262 
  49   2.0000      -7.372689      -200.6211 
  50   2.0000      -7.372167      -200.6069 
  51   2.0000      -7.371644      -200.5926 
  52   2.0000      -7.371389      -200.5857 
  53   2.0000      -7.371095      -200.5777 
  54   2.0000      -7.370499      -200.5615 
  55   2.0000      -7.370415      -200.5592 
  56   2.0000      -7.370234      -200.5543 
  57   2.0000      -7.369825      -200.5431 
  58   2.0000      -7.365483      -200.4250 
  59   2.0000      -7.365364      -200.4217 
  60   2.0000      -7.364934      -200.4101 
  61   2.0000      -7.362739      -200.3503 
  62   2.0000      -7.362353      -200.3398 
  63   2.0000      -7.362274      -200.3377 
  64   2.0000      -7.360107      -200.2787 
  65   2.0000      -7.359752      -200.2690 
  66   2.0000      -7.359650      -200.2663 
  67   2.0000      -5.707971      -155.3218 
  68   2.0000      -5.702926      -155.1845 
  69   2.0000      -3.479135       -94.6721 
  70   2.0000      -3.477830       -94.6366 
  71   2.0000      -3.477534       -94.6285 
  72   2.0000      -3.474072       -94.5343 
  73   2.0000      -3.472815       -94.5001 
  74   2.0000      -3.472523       -94.4922 
  75   2.0000      -1.026329       -27.9278 
  76   2.0000      -1.024378       -27.8748 
  77   2.0000      -1.016407       -27.6578 
  78   2.0000      -1.010845       -27.5065 
  79   2.0000      -1.010345       -27.4929 
  80   2.0000      -1.008868       -27.4527 
  81   2.0000      -0.870289       -23.6818 
  82   2.0000      -0.868209       -23.6252 
  83   2.0000      -0.866638       -23.5824 
  84   2.0000      -0.865992       -23.5648 
  85   2.0000      -0.865524       -23.5521 
  86   2.0000      -0.864731       -23.5305 
  87   2.0000      -0.863528       -23.4978 
  88   2.0000      -0.861882       -23.4530 
  89   2.0000      -0.861016       -23.4294 
  90   2.0000      -0.859823       -23.3970 
  91   2.0000      -0.781494       -21.2655 
  92   2.0000      -0.771752       -21.0004 
  93   2.0000      -0.767766       -20.8920 
  94   2.0000      -0.760636       -20.6980 
  95   2.0000      -0.756247       -20.5785 
  96   2.0000      -0.755711       -20.5640 
  97   2.0000      -0.752882       -20.4870 
  98   2.0000      -0.752054       -20.4644 
  99   2.0000      -0.747712       -20.3463 
 100   2.0000      -0.746907       -20.3244 
 101   2.0000      -0.744615       -20.2620 
 102   2.0000      -0.743580       -20.2338 
 103   2.0000      -0.740397       -20.1472 
 104   2.0000      -0.738803       -20.1038 
 105   2.0000      -0.735176       -20.0051 
 106   2.0000      -0.727142       -19.7865 
 107   2.0000      -0.725317       -19.7369 
 108   2.0000      -0.559444       -15.2232 
 109   2.0000      -0.556956       -15.1555 
 110   2.0000      -0.552228       -15.0269 
 111   2.0000      -0.550560       -14.9815 
 112   2.0000      -0.550178       -14.9711 
 113   2.0000      -0.547734       -14.9046 
 114   2.0000      -0.545520       -14.8444 
 115   2.0000      -0.544426       -14.8146 
 116   2.0000      -0.543771       -14.7968 
 117   2.0000      -0.539588       -14.6829 
 118   2.0000      -0.534380       -14.5412 
 119   2.0000      -0.532067       -14.4783 
 120   2.0000      -0.497803       -13.5459 
 121   2.0000      -0.495626       -13.4867 
 122   2.0000      -0.486583       -13.2406 
 123   2.0000      -0.481333       -13.0977 
 124   2.0000      -0.468647       -12.7525 
 125   2.0000      -0.465246       -12.6600 
 126   2.0000      -0.452936       -12.3250 
 127   2.0000      -0.436653       -11.8819 
 128   2.0000      -0.423266       -11.5177 
 129   2.0000      -0.421103       -11.4588 
 130   2.0000      -0.420909       -11.4535 
 131   2.0000      -0.418796       -11.3960 
 132   2.0000      -0.413511       -11.2522 
 133   2.0000      -0.411532       -11.1983 
 134   2.0000      -0.408978       -11.1289 
 135   2.0000      -0.407024       -11.0757 
 136   2.0000      -0.398453       -10.8425 
 137   2.0000      -0.397537       -10.8175 
 138   2.0000      -0.391702       -10.6588 
 139   2.0000      -0.391444       -10.6517 
 140   2.0000      -0.288087        -7.8393 
 141   2.0000      -0.275223        -7.4892 
 142   2.0000      -0.269823        -7.3422 
 143   2.0000      -0.264042        -7.1849 
 144   2.0000      -0.258429        -7.0322 
 145   2.0000      -0.255565        -6.9543 
 146   2.0000      -0.254192        -6.9169 
 147   2.0000      -0.248796        -6.7701 
 148   2.0000      -0.245338        -6.6760 
 149   2.0000      -0.242759        -6.6058 
 150   2.0000      -0.242100        -6.5879 
 151   2.0000      -0.238676        -6.4947 
 152   2.0000      -0.238113        -6.4794 
 153   2.0000      -0.237133        -6.4527 
 154   2.0000      -0.234876        -6.3913 
 155   2.0000      -0.232539        -6.3277 
 156   2.0000      -0.231818        -6.3081 
 157   2.0000      -0.229881        -6.2554 
 158   2.0000      -0.229245        -6.2381 
 159   2.0000      -0.228764        -6.2250 
 160   2.0000      -0.227388        -6.1875 
 161   2.0000      -0.225855        -6.1458 
 162   2.0000      -0.224728        -6.1151 
 163   2.0000      -0.224401        -6.1063 
 164   2.0000      -0.223880        -6.0921 
 165   2.0000      -0.223528        -6.0825 
 166   2.0000      -0.221449        -6.0259 
 167   2.0000      -0.220379        -5.9968 
 168   2.0000      -0.220247        -5.9932 
 169   2.0000      -0.218081        -5.9343 
 170   2.0000      -0.214489        -5.8365 
 171   2.0000      -0.194483        -5.2921 
 172   2.0000      -0.184414        -5.0182 
 173   0.0000       0.096195         2.6176 
 174   0.0000       0.111086         3.0228 
 175   0.0000       0.119194         3.2434 
 176   0.0000       0.122057         3.3213 
 177   0.0000       0.125392         3.4121 
 178   0.0000       0.127811         3.4779 
 179   0.0000       0.128713         3.5025 
 180   0.0000       0.136505         3.7145 
 181   0.0000       0.139448         3.7946 
 182   0.0000       0.143117         3.8944 
 183   0.0000       0.166196         4.5224 
 184   0.0000       0.167230         4.5506 
 185   0.0000       0.180133         4.9017 
 186   0.0000       0.183895         5.0040 
 187   0.0000       0.185894         5.0584 
 188   0.0000       0.187040         5.0896 
 189   0.0000       0.196368         5.3435 
 190   0.0000       0.197438         5.3726 
 191   0.0000       0.198809         5.4099 
 192   0.0000       0.200666         5.4604 
 193   0.0000       0.203891         5.5481 
 194   0.0000       0.207271         5.6401 
 195   0.0000       0.207744         5.6530 
 196   0.0000       0.209747         5.7075 
 197   0.0000       0.212780         5.7900 
 198   0.0000       0.220386         5.9970 
 199   0.0000       0.230774         6.2797 
 200   0.0000       0.232184         6.3181 
 201   0.0000       0.238436         6.4882 
 202   0.0000       0.239306         6.5119 
 203   0.0000       0.246763         6.7148 
 204   0.0000       0.249367         6.7856 
 205   0.0000       0.251822         6.8524 
 206   0.0000       0.254505         6.9254 
 207   0.0000       0.257456         7.0057 
 208   0.0000       0.258386         7.0310 
 209   0.0000       0.267002         7.2655 
 210   0.0000       0.268787         7.3141 
 211   0.0000       0.270817         7.3693 
 212   0.0000       0.271597         7.3905 
 213   0.0000       0.274384         7.4664 
 214   0.0000       0.281750         7.6668 
 215   0.0000       0.284781         7.7493 
 216   0.0000       0.285744         7.7755 
 217   0.0000       0.288223         7.8429 
 218   0.0000       0.290370         7.9014 
 219   0.0000       0.295858         8.0507 
 220   0.0000       0.298736         8.1290 
 221   0.0000       0.299778         8.1574 
 222   0.0000       0.307356         8.3636 
 223   0.0000       0.312329         8.4989 
 224   0.0000       0.314728         8.5642 
 225   0.0000       0.324859         8.8399 
 226   0.0000       0.326246         8.8776 
 227   0.0000       0.339796         9.2463 
 228   0.0000       0.342284         9.3140 
 229   0.0000       0.347038         9.4434 
 230   0.0000       0.348350         9.4791 
 231   0.0000       0.349803         9.5186 
 232   0.0000       0.351532         9.5657 
 233   0.0000       0.358620         9.7586 
 234   0.0000       0.361277         9.8308 
 235   0.0000       0.363775         9.8988 
 236   0.0000       0.365880         9.9561 
 237   0.0000       0.366621         9.9763 
 238   0.0000       0.369439        10.0530 
 239   0.0000       0.370222        10.0743 
 240   0.0000       0.372749        10.1430 
 241   0.0000       0.373646        10.1674 
 242   0.0000       0.375263        10.2114 
 243   0.0000       0.382569        10.4102 
 244   0.0000       0.385309        10.4848 
 245   0.0000       0.387684        10.5494 
 246   0.0000       0.392592        10.6830 
 247   0.0000       0.396761        10.7964 
 248   0.0000       0.400753        10.9051 
 249   0.0000       0.404599        11.0097 
 250   0.0000       0.404869        11.0170 
 251   0.0000       0.409615        11.1462 
 252   0.0000       0.415964        11.3190 
 253   0.0000       0.424160        11.5420 
 254   0.0000       0.426697        11.6110 
 255   0.0000       0.428503        11.6602 
 256   0.0000       0.434115        11.8129 
 257   0.0000       0.437709        11.9107 
 258   0.0000       0.439332        11.9548 
 259   0.0000       0.452188        12.3047 
 260   0.0000       0.462740        12.5918 
 261   0.0000       0.463472        12.6117 
 262   0.0000       0.468411        12.7461 
 263   0.0000       0.471897        12.8410 
 264   0.0000       0.472757        12.8644 
 265   0.0000       0.477547        12.9947 
 266   0.0000       0.482808        13.1379 
 267   0.0000       0.486257        13.2317 
 268   0.0000       0.493393        13.4259 
 269   0.0000       0.494111        13.4454 
 270   0.0000       0.497055        13.5256 
 271   0.0000       0.500868        13.6293 
 272   0.0000       0.504821        13.7369 
 273   0.0000       0.506986        13.7958 
 274   0.0000       0.511739        13.9251 
 275   0.0000       0.515986        14.0407 
 276   0.0000       0.518904        14.1201 
 277   0.0000       0.525308        14.2944 
 278   0.0000       0.529828        14.4173 
 279   0.0000       0.531837        14.4720 
 280   0.0000       0.534913        14.5557 
 281   0.0000       0.537987        14.6394 
 282   0.0000       0.540967        14.7205 
 283   0.0000       0.548908        14.9365 
 284   0.0000       0.551707        15.0127 
 285   0.0000       0.553889        15.0721 
 286   0.0000       0.557862        15.1802 
 287   0.0000       0.558865        15.2075 
 288   0.0000       0.562001        15.2928 
 289   0.0000       0.564470        15.3600 
 290   0.0000       0.564887        15.3714 
 291   0.0000       0.566993        15.4287 
 292   0.0000       0.568369        15.4661 
 293   0.0000       0.571444        15.5498 
 294   0.0000       0.574380        15.6297 
 295   0.0000       0.574963        15.6455 
 296   0.0000       0.575993        15.6736 
 297   0.0000       0.580010        15.7829 
 298   0.0000       0.580928        15.8079 
 299   0.0000       0.582316        15.8456 
 300   0.0000       0.585389        15.9292 
 301   0.0000       0.586973        15.9724 
 302   0.0000       0.589171        16.0321 
 303   0.0000       0.590089        16.0571 
 304   0.0000       0.593265        16.1436 
 305   0.0000       0.594733        16.1835 
 306   0.0000       0.597466        16.2579 
 307   0.0000       0.601076        16.3561 
 308   0.0000       0.602826        16.4037 
 309   0.0000       0.604489        16.4490 
 310   0.0000       0.605690        16.4817 
 311   0.0000       0.608621        16.5614 
 312   0.0000       0.608982        16.5712 
 313   0.0000       0.610712        16.6183 
 314   0.0000       0.614901        16.7323 
 315   0.0000       0.615920        16.7600 
 316   0.0000       0.621566        16.9137 
 317   0.0000       0.623902        16.9772 
 318   0.0000       0.626546        17.0492 
 319   0.0000       0.630052        17.1446 
 320   0.0000       0.632356        17.2073 
 321   0.0000       0.632940        17.2232 
 322   0.0000       0.635577        17.2949 
 323   0.0000       0.638359        17.3706 
 324   0.0000       0.639937        17.4136 
 325   0.0000       0.642766        17.4906 
 326   0.0000       0.646706        17.5978 
 327   0.0000       0.648170        17.6376 
 328   0.0000       0.650279        17.6950 
 329   0.0000       0.652002        17.7419 
 330   0.0000       0.655946        17.8492 
 331   0.0000       0.656723        17.8703 
 332   0.0000       0.659424        17.9438 
 333   0.0000       0.661323        17.9955 
 334   0.0000       0.662953        18.0399 
 335   0.0000       0.665579        18.1113 
 336   0.0000       0.666504        18.1365 
 337   0.0000       0.671445        18.2710 
 338   0.0000       0.672451        18.2983 
 339   0.0000       0.679638        18.4939 
 340   0.0000       0.680242        18.5103 
 341   0.0000       0.683957        18.6114 
 342   0.0000       0.685438        18.6517 
 343   0.0000       0.687263        18.7014 
 344   0.0000       0.689716        18.7681 
 345   0.0000       0.691321        18.8118 
 346   0.0000       0.692423        18.8418 
 347   0.0000       0.699536        19.0353 
 348   0.0000       0.700794        19.0696 
 349   0.0000       0.703109        19.1326 
 350   0.0000       0.704236        19.1632 
 351   0.0000       0.711728        19.3671 
 352   0.0000       0.714436        19.4408 
 353   0.0000       0.714983        19.4557 
 354   0.0000       0.722390        19.6572 
 355   0.0000       0.728236        19.8163 
 356   0.0000       0.731338        19.9007 
 357   0.0000       0.732237        19.9252 
 358   0.0000       0.732804        19.9406 
 359   0.0000       0.737208        20.0605 
 360   0.0000       0.741279        20.1712 
 361   0.0000       0.742266        20.1981 
 362   0.0000       0.749706        20.4005 
 363   0.0000       0.752028        20.4637 
 364   0.0000       0.756387        20.5823 
 365   0.0000       0.759427        20.6651 
 366   0.0000       0.767560        20.8864 
 367   0.0000       0.769129        20.9291 
 368   0.0000       0.774145        21.0656 
 369   0.0000       0.777544        21.1581 
 370   0.0000       0.779478        21.2107 
 371   0.0000       0.787270        21.4227 
 372   0.0000       0.788242        21.4491 
 373   0.0000       0.791223        21.5303 
 374   0.0000       0.797231        21.6937 
 375   0.0000       0.800165        21.7736 
 376   0.0000       0.802545        21.8383 
 377   0.0000       0.805427        21.9168 
 378   0.0000       0.808002        21.9868 
 379   0.0000       0.809737        22.0341 
 380   0.0000       0.811015        22.0688 
 381   0.0000       0.813979        22.1495 
 382   0.0000       0.819525        22.3004 
 383   0.0000       0.820734        22.3333 
 384   0.0000       0.823527        22.4093 
 385   0.0000       0.827160        22.5082 
 386   0.0000       0.829940        22.5838 
 387   0.0000       0.833063        22.6688 
 388   0.0000       0.833080        22.6692 
 389   0.0000       0.836341        22.7580 
 390   0.0000       0.838650        22.8208 
 391   0.0000       0.841790        22.9063 
 392   0.0000       0.842116        22.9151 
 393   0.0000       0.848373        23.0854 
 394   0.0000       0.852318        23.1928 
 395   0.0000       0.854787        23.2599 
 396   0.0000       0.863697        23.5024 
 397   0.0000       0.868952        23.6454 
 398   0.0000       0.873042        23.7567 
 399   0.0000       0.877412        23.8756 
 400   0.0000       0.884248        24.0616 
 401   0.0000       0.886990        24.1362 
 402   0.0000       0.888842        24.1866 
 403   0.0000       0.891961        24.2715 
 404   0.0000       0.898482        24.4489 
 405   0.0000       0.899439        24.4750 
 406   0.0000       0.901034        24.5184 
 407   0.0000       0.905074        24.6283 
 408   0.0000       0.910314        24.7709 
 409   0.0000       0.916341        24.9349 
 410   0.0000       0.919991        25.0342 
 411   0.0000       0.923818        25.1384 
 412   0.0000       0.925728        25.1903 
 413   0.0000       0.935439        25.4546 
 414   0.0000       0.937876        25.5209 
 415   0.0000       0.945077        25.7169 
 416   0.0000       0.947197        25.7745 
 417   0.0000       0.951825        25.9005 
 418   0.0000       0.956991        26.0411 
 419   0.0000       0.961897        26.1745 
 420   0.0000       0.965846        26.2820 
 421   0.0000       0.967898        26.3378 
 422   0.0000       0.975228        26.5373 
 423   0.0000       0.980855        26.6904 
 424   0.0000       0.986337        26.8396 
 425   0.0000       0.986966        26.8567 
 426   0.0000       0.994512        27.0620 
 427   0.0000       0.997988        27.1566 
 428   0.0000       1.003177        27.2978 
 429   0.0000       1.005177        27.3523 
 430   0.0000       1.007513        27.4158 
 431   0.0000       1.010668        27.5017 
 432   0.0000       1.017973        27.7005 
 433   0.0000       1.021554        27.7979 
 434   0.0000       1.023065        27.8390 
 435   0.0000       1.028802        27.9951 
 436   0.0000       1.032445        28.0943 
 437   0.0000       1.035135        28.1675 
 438   0.0000       1.036474        28.2039 
 439   0.0000       1.044222        28.4147 
 440   0.0000       1.048168        28.5221 
 441   0.0000       1.052711        28.6457 
 442   0.0000       1.053898        28.6780 
 443   0.0000       1.061000        28.8713 
 444   0.0000       1.062350        28.9080 
 445   0.0000       1.070097        29.1188 
 446   0.0000       1.075656        29.2701 
 447   0.0000       1.085284        29.5321 
 448   0.0000       1.090267        29.6677 
 449   0.0000       1.094709        29.7885 
 450   0.0000       1.117345        30.4045 
 451   0.0000       1.128627        30.7115 
 452   0.0000       1.147778        31.2326 
 453   0.0000       1.156313        31.4649 
 454   0.0000       1.157769        31.5045 
 455   0.0000       1.165181        31.7062 
 456   0.0000       1.169851        31.8333 
 457   0.0000       1.179112        32.0853 
 458   0.0000       1.185056        32.2470 
 459   0.0000       1.198587        32.6152 
 460   0.0000       1.201765        32.7017 
 461   0.0000       1.206227        32.8231 
 462   0.0000       1.208597        32.8876 
 463   0.0000       1.213021        33.0080 
 464   0.0000       1.247402        33.9435 
 465   0.0000       1.254871        34.1468 
 466   0.0000       1.281347        34.8672 
 467   0.0000       1.284867        34.9630 
 468   0.0000       1.292884        35.1812 
 469   0.0000       1.296812        35.2881 
 470   0.0000       1.302627        35.4463 
 471   0.0000       1.304715        35.5031 
 472   0.0000       1.308954        35.6184 
 473   0.0000       1.311166        35.6786 
 474   0.0000       1.315568        35.7984 
 475   0.0000       1.317723        35.8571 
 476   0.0000       1.328201        36.1422 
 477   0.0000       1.333200        36.2782 
 478   0.0000       1.337401        36.3925 
 479   0.0000       1.345238        36.6058 
 480   0.0000       1.347130        36.6573 
 481   0.0000       1.351363        36.7725 
 482   0.0000       1.361076        37.0368 
 483   0.0000       1.367315        37.2065 
 484   0.0000       1.371621        37.3237 
 485   0.0000       1.374465        37.4011 
 486   0.0000       1.388759        37.7901 
 487   0.0000       1.402857        38.1737 
 488   0.0000       1.413998        38.4768 
 489   0.0000       1.430340        38.9215 
 490   0.0000       1.448188        39.4072 
 491   0.0000       1.451479        39.4967 
 492   0.0000       1.462204        39.7886 
 493   0.0000       1.474008        40.1098 
 494   0.0000       1.495551        40.6960 
 495   0.0000       1.507792        41.0291 
 496   0.0000       1.521185        41.3935 
 497   0.0000       1.524661        41.4881 
 498   0.0000       1.526806        41.5465 
 499   0.0000       1.539457        41.8908 
 500   0.0000       1.548337        42.1324 
 501   0.0000       1.559432        42.4343 
 502   0.0000       1.560730        42.4696 
 503   0.0000       1.568249        42.6742 
 504   0.0000       1.597439        43.4685 
 505   0.0000       1.599404        43.5220 
 506   0.0000       1.605246        43.6810 
 507   0.0000       1.606892        43.7258 
 508   0.0000       1.610266        43.8176 
 509   0.0000       1.616789        43.9951 
 510   0.0000       1.643402        44.7192 
 511   0.0000       1.646512        44.8039 
 512   0.0000       1.656986        45.0889 
 513   0.0000       1.659205        45.1493 
 514   0.0000       1.665990        45.3339 
 515   0.0000       1.670378        45.4533 
 516   0.0000       1.686721        45.8980 
 517   0.0000       1.688751        45.9533 
 518   0.0000       1.690356        45.9969 
 519   0.0000       1.691596        46.0307 
 520   0.0000       1.692436        46.0535 
 521   0.0000       1.693536        46.0835 
 522   0.0000       1.702731        46.3337 
 523   0.0000       1.704736        46.3882 
 524   0.0000       1.706978        46.4492 
 525   0.0000       1.710429        46.5431 
 526   0.0000       1.712564        46.6012 
 527   0.0000       1.715510        46.6814 
 528   0.0000       1.720287        46.8114 
 529   0.0000       1.722752        46.8785 
 530   0.0000       1.725113        46.9427 
 531   0.0000       1.728142        47.0251 
 532   0.0000       1.728951        47.0471 
 533   0.0000       1.732943        47.1558 
 534   0.0000       1.735460        47.2243 
 535   0.0000       1.737552        47.2812 
 536   0.0000       1.744897        47.4810 
 537   0.0000       1.748524        47.5797 
 538   0.0000       1.752107        47.6773 
 539   0.0000       1.756522        47.7974 
 540   0.0000       1.785890        48.5965 
 541   0.0000       1.794646        48.8348 
 542   0.0000       1.853444        50.4348 
 543   0.0000       1.858174        50.5635 
 544   0.0000       1.865628        50.7663 
 545   0.0000       1.871404        50.9235 
 546   0.0000       1.874264        51.0013 
 547   0.0000       1.876203        51.0541 
 548   0.0000       1.887389        51.3585 
 549   0.0000       1.889758        51.4229 
 550   0.0000       1.893042        51.5123 
 551   0.0000       1.898572        51.6628 
 552   0.0000       1.907866        51.9157 
 553   0.0000       1.912441        52.0402 
 554   0.0000       1.927079        52.4385 
 555   0.0000       1.932124        52.5758 
 556   0.0000       1.938148        52.7397 
 557   0.0000       1.942171        52.8492 
 558   0.0000       1.944850        52.9221 
 559   0.0000       1.953266        53.1511 
 560   0.0000       1.988482        54.1093 
 561   0.0000       1.992779        54.2263 
 562   0.0000       1.994179        54.2644 
 563   0.0000       1.996396        54.3247 
 564   0.0000       1.999336        54.4047 
 565   0.0000       2.003099        54.5071 
 566   0.0000       2.003952        54.5303 
 567   0.0000       2.006599        54.6023 
 568   0.0000       2.011252        54.7290 
 569   0.0000       2.019293        54.9478 
 570   0.0000       2.020563        54.9823 
 571   0.0000       2.024326        55.0847 
 572   0.0000       2.026979        55.1569 
 573   0.0000       2.029676        55.2303 
 574   0.0000       2.033848        55.3438 
 575   0.0000       2.035237        55.3816 
 576   0.0000       2.035698        55.3942 
 577   0.0000       2.038844        55.4798 
 578   0.0000       2.041297        55.5465 
 579   0.0000       2.041851        55.5616 
 580   0.0000       2.045089        55.6497 
 581   0.0000       2.049637        55.7734 
 582   0.0000       2.053452        55.8773 
 583   0.0000       2.058615        56.0178 
 584   0.0000       2.063555        56.1522 
 585   0.0000       2.066155        56.2229 
 586   0.0000       2.069504        56.3141 
 587   0.0000       2.070901        56.3521 
 588   0.0000       2.074346        56.4458 
 589   0.0000       2.074814        56.4586 
 590   0.0000       2.077964        56.5443 
 591   0.0000       2.079434        56.5843 
 592   0.0000       2.080921        56.6247 
 593   0.0000       2.084602        56.7249 
 594   0.0000       2.088692        56.8362 
 595   0.0000       2.090827        56.8943 
 596   0.0000       2.092525        56.9405 
 597   0.0000       2.094754        57.0012 
 598   0.0000       2.096618        57.0519 
 599   0.0000       2.099369        57.1267 
 600   0.0000       2.102319        57.2070 
 601   0.0000       2.102435        57.2102 
 602   0.0000       2.108529        57.3760 
 603   0.0000       2.111302        57.4514 
 604   0.0000       2.116619        57.5961 
 605   0.0000       2.124972        57.8234 
 606   0.0000       2.126067        57.8532 
 607   0.0000       2.129638        57.9504 
 608   0.0000       2.137915        58.1756 
 609   0.0000       2.138772        58.1989 
 610   0.0000       2.146123        58.3990 
 611   0.0000       2.148531        58.4645 
 612   0.0000       2.149644        58.4948 
 613   0.0000       2.156826        58.6902 
 614   0.0000       2.159979        58.7760 
 615   0.0000       2.160508        58.7904 
 616   0.0000       2.164721        58.9050 
 617   0.0000       2.166377        58.9501 
 618   0.0000       2.173860        59.1538 
 619   0.0000       2.175042        59.1859 
 620   0.0000       2.176245        59.2186 
 621   0.0000       2.181500        59.3616 
 622   0.0000       2.182297        59.3833 
 623   0.0000       2.185528        59.4712 
 624   0.0000       2.188148        59.5425 
 625   0.0000       2.190738        59.6130 
 626   0.0000       2.195393        59.7397 
 627   0.0000       2.199497        59.8514 
 628   0.0000       2.203227        59.9529 
 629   0.0000       2.203764        59.9675 
 630   0.0000       2.210198        60.1425 
 631   0.0000       2.212524        60.2058 
 632   0.0000       2.216414        60.3117 
 633   0.0000       2.219475        60.3950 
 634   0.0000       2.226126        60.5760 
 635   0.0000       2.228335        60.6361 
 636   0.0000       2.233967        60.7893 
 637   0.0000       2.237649        60.8895 
 638   0.0000       2.239615        60.9430 
 639   0.0000       2.252943        61.3057 
 640   0.0000       2.254910        61.3592 
 641   0.0000       2.258797        61.4650 
 642   0.0000       2.260695        61.5166 
 643   0.0000       2.265268        61.6411 
 644   0.0000       2.266617        61.6778 
 645   0.0000       2.271863        61.8205 
 646   0.0000       2.273675        61.8698 
 647   0.0000       2.277509        61.9742 
 648   0.0000       2.280656        62.0598 
 649   0.0000       2.282461        62.1089 
 650   0.0000       2.284984        62.1776 
 651   0.0000       2.288447        62.2718 
 652   0.0000       2.292138        62.3722 
 653   0.0000       2.293921        62.4208 
 654   0.0000       2.298504        62.5455 
 655   0.0000       2.302489        62.6539 
 656   0.0000       2.308468        62.8166 
 657   0.0000       2.310557        62.8735 
 658   0.0000       2.312957        62.9388 
 659   0.0000       2.314682        62.9857 
 660   0.0000       2.316761        63.0423 
 661   0.0000       2.319099        63.1059 
 662   0.0000       2.323569        63.2275 
 663   0.0000       2.325052        63.2679 
 664   0.0000       2.326294        63.3017 
 665   0.0000       2.334473        63.5242 
 666   0.0000       2.336821        63.5881 
 667   0.0000       2.338071        63.6222 
 668   0.0000       2.339380        63.6578 
 669   0.0000       2.343580        63.7720 
 670   0.0000       2.346429        63.8496 
 671   0.0000       2.350200        63.9522 
 672   0.0000       2.352559        64.0164 
 673   0.0000       2.353142        64.0323 
 674   0.0000       2.355157        64.0871 
 675   0.0000       2.357671        64.1555 
 676   0.0000       2.359303        64.1999 
 677   0.0000       2.361643        64.2636 
 678   0.0000       2.362701        64.2924 
 679   0.0000       2.364699        64.3467 
 680   0.0000       2.366241        64.3887 
 681   0.0000       2.366606        64.3986 
 682   0.0000       2.367790        64.4308 
 683   0.0000       2.368521        64.4507 
 684   0.0000       2.369147        64.4678 
 685   0.0000       2.370062        64.4927 
 686   0.0000       2.370871        64.5147 
 687   0.0000       2.373924        64.5978 
 688   0.0000       2.374164        64.6043 
 689   0.0000       2.376872        64.6780 
 690   0.0000       2.378767        64.7295 
 691   0.0000       2.379779        64.7571 
 692   0.0000       2.380633        64.7803 
 693   0.0000       2.382148        64.8216 
 694   0.0000       2.383599        64.8610 
 695   0.0000       2.385059        64.9008 
 696   0.0000       2.385512        64.9131 
 697   0.0000       2.387724        64.9733 
 698   0.0000       2.389069        65.0099 
 699   0.0000       2.390138        65.0390 
 700   0.0000       2.391273        65.0698 
 701   0.0000       2.393249        65.1236 
 702   0.0000       2.395920        65.1963 
 703   0.0000       2.396412        65.2097 
 704   0.0000       2.398074        65.2549 
 705   0.0000       2.400673        65.3256 
 706   0.0000       2.404185        65.4212 
 707   0.0000       2.407420        65.5092 
 708   0.0000       2.409854        65.5755 
 709   0.0000       2.413311        65.6695 
 710   0.0000       2.420232        65.8579 
 711   0.0000       2.424960        65.9865 
 712   0.0000       2.427140        66.0458 
 713   0.0000       2.430961        66.1498 
 714   0.0000       2.433067        66.2071 
 715   0.0000       2.434008        66.2327 
 716   0.0000       2.435981        66.2864 
 717   0.0000       2.440029        66.3966 
 718   0.0000       2.443730        66.4973 
 719   0.0000       2.445519        66.5460 
 720   0.0000       2.446762        66.5798 
 721   0.0000       2.449331        66.6497 
 722   0.0000       2.452422        66.7338 
 723   0.0000       2.455207        66.8096 
 724   0.0000       2.455513        66.8179 
 725   0.0000       2.460903        66.9646 
 726   0.0000       2.462319        67.0031 
 727   0.0000       2.467592        67.1466 
 728   0.0000       2.468916        67.1826 
 729   0.0000       2.475021        67.3488 
 730   0.0000       2.475652        67.3659 
 731   0.0000       2.480919        67.5092 
 732   0.0000       2.485848        67.6434 
 733   0.0000       2.491128        67.7870 
 734   0.0000       2.492120        67.8140 
 735   0.0000       2.493513        67.8519 
 736   0.0000       2.497016        67.9472 
 737   0.0000       2.498009        67.9743 
 738   0.0000       2.499349        68.0107 
 739   0.0000       2.502373        68.0930 
 740   0.0000       2.505832        68.1871 
 741   0.0000       2.507695        68.2379 
 742   0.0000       2.510560        68.3158 
 743   0.0000       2.511976        68.3543 
 744   0.0000       2.514506        68.4232 
 745   0.0000       2.516023        68.4645 
 746   0.0000       2.518889        68.5425 
 747   0.0000       2.524674        68.6999 
 748   0.0000       2.527742        68.7834 
 749   0.0000       2.532547        68.9141 
 750   0.0000       2.534027        68.9544 
 751   0.0000       2.540246        69.1236 
[...]
      f+3     :     0.003331
      f-3     :     0.002318
 48 H s       :     0.822250  s :     0.822250
      pz      :     0.012294  p :     0.060963
      px      :     0.021519
      py      :     0.027150
 49 N s       :     3.009174  s :     3.009174
      pz      :     1.241499  p :     3.767052
      px      :     1.265022
      py      :     1.260531
      dz2     :     0.031245  d :     0.154015
      dxz     :     0.041312
      dyz     :     0.034523
      dx2y2   :     0.008643
      dxy     :     0.038291
      f0      :     0.002210  f :     0.009623
      f+1     :     0.001249
      f-1     :     0.001239
      f+2     :     0.001516
      f-2     :     0.001532
      f+3     :     0.001146
      f-3     :     0.000730
 50 H s       :     0.720679  s :     0.720679
      pz      :     0.018961  p :     0.136331
      px      :     0.046912
      py      :     0.070458
 51 H s       :     0.821497  s :     0.821497
      pz      :     0.021523  p :     0.061086
      px      :     0.024266
      py      :     0.015297
 52 H s       :     0.723706  s :     0.723706
      pz      :     0.038415  p :     0.131373
      px      :     0.046112
      py      :     0.046846
 53 H s       :     0.821265  s :     0.821265
      pz      :     0.023351  p :     0.061068
      px      :     0.014286
      py      :     0.023430
 54 H s       :     0.723155  s :     0.723155
      pz      :     0.039962  p :     0.126455
      px      :     0.042729
      py      :     0.043764
 55 C s       :     2.850900  s :     2.850900
      pz      :     1.046366  p :     3.092481
      px      :     0.985181
      py      :     1.060934
      dz2     :     0.030365  d :     0.317776
      dxz     :     0.083605
      dyz     :     0.079005
      dx2y2   :     0.043806
      dxy     :     0.080995
      f0      :     0.004786  f :     0.038269
      f+1     :     0.007348
      f-1     :     0.003118
      f+2     :     0.004461
      f-2     :     0.006450
      f+3     :     0.007135
      f-3     :     0.004971
 56 H s       :     0.821603  s :     0.821603
      pz      :     0.022220  p :     0.061112
      px      :     0.020758
      py      :     0.018134
 57 N s       :     3.008944  s :     3.008944
      pz      :     1.262159  p :     3.765932
      px      :     1.246815
      py      :     1.256958
      dz2     :     0.014509  d :     0.154099
      dxz     :     0.038403
      dyz     :     0.040520
      dx2y2   :     0.021644
      dxy     :     0.039023
      f0      :     0.001288  f :     0.009595
      f+1     :     0.001654
      f-1     :     0.000905
      f+2     :     0.001069
      f-2     :     0.001733
      f+3     :     0.001856
      f-3     :     0.001089
 58 H s       :     0.719143  s :     0.719143
      pz      :     0.043445  p :     0.142444
      px      :     0.051707
      py      :     0.047292
 59 H s       :     0.820357  s :     0.820357
      pz      :     0.018424  p :     0.061087
      px      :     0.017924
      py      :     0.024738
 60 H s       :     0.720428  s :     0.720428
      pz      :     0.052645  p :     0.135208
      px      :     0.022359
      py      :     0.060204


                      *****************************
                      * MAYER POPULATION ANALYSIS *
                      *****************************

  NA   - Mulliken gross atomic population
  ZA   - Total nuclear charge
  QA   - Mulliken gross atomic charge
  VA   - Mayer's total valence
  BVA  - Mayer's bonded valence
  FA   - Mayer's free valence

  ATOM       NA         ZA         QA         VA         BVA        FA
  0 C      6.2516     6.0000    -0.2516     3.8911     3.8911     0.0000
  1 N      7.2879     7.0000    -0.2879     3.2303     3.2303     0.0000
  2 H      0.8635     1.0000     0.1365     0.9649     0.9649     0.0000
  3 H      0.8577     1.0000     0.1423     0.9645     0.9645     0.0000
  4 H      0.8594     1.0000     0.1406     0.9632     0.9632     0.0000
  5 H      0.7279     1.0000     0.2721     1.0101     1.0101     0.0000
  6 H      0.7317     1.0000     0.2683     1.0028     1.0028     0.0000
  7 H      0.7190     1.0000     0.2810     0.9957     0.9957    -0.0000
  8 Pb    21.0064    22.0000     0.9936     1.7287     1.7287     0.0000
  9 Cl    17.6070    17.0000    -0.6070     0.6980     0.6980    -0.0000
 10 Cl    17.7205    17.0000    -0.7205     0.5041     0.5041     0.0000
 11 Cl    17.6541    17.0000    -0.6541     0.6205     0.6205     0.0000
 12 Cl    17.7029    17.0000    -0.7029     0.5416     0.5416    -0.0000
 13 Cl    17.6706    17.0000    -0.6706     0.5993     0.5993    -0.0000
 14 Cl    17.5936    17.0000    -0.5936     0.7093     0.7093     0.0000
 15 N      7.2731     7.0000    -0.2731     3.3717     3.3717    -0.0000
 16 C      6.2406     6.0000    -0.2406     3.8478     3.8478    -0.0000
 17 H      0.7252     1.0000     0.2748     1.0054     1.0054     0.0000
 18 H      0.7025     1.0000     0.2975     0.9649     0.9649     0.0000
 19 H      0.8524     1.0000     0.1476     0.9797     0.9797     0.0000
 20 H      0.8625     1.0000     0.1375     1.0000     1.0000     0.0000
 21 H      0.8772     1.0000     0.1228     0.9720     0.9720     0.0000
 22 H      0.7067     1.0000     0.2933     0.9454     0.9454    -0.0000
 23 Cl    17.6661    17.0000    -0.6661     0.6060     0.6060     0.0000
 24 Cl    17.7028    17.0000    -0.7028     0.5422     0.5422     0.0000
 25 Pb    21.0073    22.0000     0.9927     1.7320     1.7320    -0.0000
 26 N      7.2775     7.0000    -0.2775     3.3705     3.3705    -0.0000
 27 C      6.2358     6.0000    -0.2358     3.8367     3.8367    -0.0000
 28 H      0.7056     1.0000     0.2944     0.9688     0.9688    -0.0000
 29 H      0.7045     1.0000     0.2955     0.9419     0.9419    -0.0000
 30 H      0.8793     1.0000     0.1207     0.9694     0.9694    -0.0000
 31 H      0.8494     1.0000     0.1506     0.9809     0.9809     0.0000
 32 H      0.8620     1.0000     0.1380     1.0044     1.0044    -0.0000
 33 H      0.7252     1.0000     0.2748     1.0032     1.0032     0.0000
 34 Cl    17.6030    17.0000    -0.6030     0.7046     0.7046    -0.0000
 35 H      0.8633     1.0000     0.1367     0.9649     0.9649    -0.0000
 36 H      0.7323     1.0000     0.2677     1.0037     1.0037    -0.0000
 37 H      0.8594     1.0000     0.1406     0.9634     0.9634     0.0000
 38 C      6.2505     6.0000    -0.2505     3.8898     3.8898    -0.0000
 39 N      7.2925     7.0000    -0.2925     3.2262     3.2262     0.0000
 40 Cl    17.6513    17.0000    -0.6513     0.6244     0.6244    -0.0000
 41 H      0.7230     1.0000     0.2770     1.0055     1.0055    -0.0000
 42 H      0.7189     1.0000     0.2811     0.9932     0.9932    -0.0000
 43 H      0.8580     1.0000     0.1420     0.9643     0.9643    -0.0000
 44 Cl    17.7109    17.0000    -0.7109     0.5215     0.5215     0.0000
 45 H      0.8665     1.0000     0.1335     0.9708     0.9708    -0.0000
 46 H      0.7287     1.0000     0.2713     1.0156     1.0156    -0.0000
 47 C      6.2443     6.0000    -0.2443     3.8976     3.8976    -0.0000
 48 H      0.8647     1.0000     0.1353     0.9647     0.9647    -0.0000
 49 N      7.2845     7.0000    -0.2845     3.2006     3.2006     0.0000
 50 H      0.7395     1.0000     0.2605     1.0262     1.0262    -0.0000
 51 H      0.8632     1.0000     0.1368     0.9650     0.9650     0.0000
 52 H      0.7241     1.0000     0.2759     0.9915     0.9915     0.0000
 53 H      0.8626     1.0000     0.1374     0.9648     0.9648    -0.0000
 54 H      0.7255     1.0000     0.2745     0.9881     0.9881    -0.0000
 55 C      6.2454     6.0000    -0.2454     3.8916     3.8916    -0.0000
 56 H      0.8625     1.0000     0.1375     0.9641     0.9641     0.0000
 57 N      7.2866     7.0000    -0.2866     3.2021     3.2021     0.0000
 58 H      0.7270     1.0000     0.2730     1.0190     1.0190     0.0000
 59 H      0.8638     1.0000     0.1362     0.9704     0.9704    -0.0000
 60 H      0.7384     1.0000     0.2616     1.0231     1.0231     0.0000

  Mayer bond orders larger than 0.1
B(  0-C ,  1-N ) :   0.9347 B(  0-C ,  2-H ) :   0.9748 B(  0-C ,  3-H ) :   0.9745 
B(  0-C ,  4-H ) :   0.9742 B(  1-N ,  5-H ) :   0.7862 B(  1-N ,  6-H ) :   0.8128 
B(  1-N ,  7-H ) :   0.8004 B(  5-H , 11-Cl) :   0.2263 B(  6-H ,  9-Cl) :   0.1876 
B(  7-H , 10-Cl) :   0.1889 B(  8-Pb,  9-Cl) :   0.4806 B(  8-Pb, 10-Cl) :   0.1677 
B(  8-Pb, 11-Cl) :   0.3615 B(  8-Pb, 12-Cl) :   0.1429 B(  8-Pb, 13-Cl) :   0.2533 
B(  8-Pb, 14-Cl) :   0.3140 B( 10-Cl, 52-H ) :   0.1719 B( 12-Cl, 17-H ) :   0.2022 
B( 12-Cl, 46-H ) :   0.2349 B( 13-Cl, 18-H ) :   0.1353 B( 13-Cl, 50-H ) :   0.2362 
B( 14-Cl, 25-Pb) :   0.2813 B( 15-N , 16-C ) :   0.9304 B( 15-N , 17-H ) :   0.8010 
B( 15-N , 18-H ) :   0.8250 B( 15-N , 22-H ) :   0.8692 B( 16-C , 19-H ) :   0.9700 
B( 16-C , 20-H ) :   0.9668 B( 16-C , 21-H ) :   0.9705 B( 23-Cl, 25-Pb) :   0.2644 
B( 23-Cl, 28-H ) :   0.1384 B( 23-Cl, 60-H ) :   0.2288 B( 24-Cl, 25-Pb) :   0.1351 
B( 24-Cl, 33-H ) :   0.1974 B( 24-Cl, 58-H ) :   0.2492 B( 25-Pb, 34-Cl) :   0.4887 
B( 25-Pb, 40-Cl) :   0.3489 B( 25-Pb, 44-Cl) :   0.2032 B( 26-N , 27-C ) :   0.9267 
B( 26-N , 28-H ) :   0.8245 B( 26-N , 29-H ) :   0.8675 B( 26-N , 33-H ) :   0.8043 
B( 27-C , 30-H ) :   0.9706 B( 27-C , 31-H ) :   0.9692 B( 27-C , 32-H ) :   0.9657 
B( 34-Cl, 36-H ) :   0.1896 B( 35-H , 38-C ) :   0.9750 B( 36-H , 39-N ) :   0.8118 
B( 37-H , 38-C ) :   0.9742 B( 38-C , 39-N ) :   0.9324 B( 38-C , 43-H ) :   0.9747 
B( 39-N , 41-H ) :   0.7804 B( 39-N , 42-H ) :   0.8044 B( 40-Cl, 41-H ) :   0.2270 
B( 42-H , 44-Cl) :   0.1827 B( 44-Cl, 54-H ) :   0.1581 B( 45-H , 47-C ) :   0.9753 
B( 46-H , 49-N ) :   0.7783 B( 47-C , 48-H ) :   0.9759 B( 47-C , 49-N ) :   0.9406 
B( 47-C , 51-H ) :   0.9750 B( 49-N , 50-H ) :   0.7885 B( 49-N , 52-H ) :   0.8143 
B( 53-H , 55-C ) :   0.9757 B( 54-H , 57-N ) :   0.8247 B( 55-C , 56-H ) :   0.9747 
B( 55-C , 57-N ) :   0.9369 B( 55-C , 59-H ) :   0.9748 B( 57-N , 58-H ) :   0.7684 
B( 57-N , 60-H ) :   0.7916 

-------
TIMINGS
-------

Total SCF time: 0 days 0 hours 18 min 25 sec 

Total time                  ....    1105.264 sec
Sum of individual times     ....     643.122 sec  ( 58.2%)

Fock matrix formation       ....     568.151 sec  ( 51.4%)
  Coulomb formation         ....     519.992 sec  ( 91.5% of F)
  Split-RI-J                ....      40.552 sec  (  7.1% of F)
  Chain of spheres X        ....     920.064 sec  (161.9% of F)
  COS-X 1 center corr.      ....       0.000 sec  (  0.0% of F)
  XC integration            ....      48.108 sec  (  8.5% of F)
    Basis function eval.    ....      20.651 sec  ( 42.9% of XC)
    Density eval.           ....      12.661 sec  ( 26.3% of XC)
    XC-Functional eval.     ....       1.453 sec  (  3.0% of XC)
    XC-Potential eval.      ....      12.526 sec  ( 26.0% of XC)
Diagonalization             ....       1.135 sec  (  0.1%)
Density matrix formation    ....       0.364 sec  (  0.0%)
Population analysis         ....       6.419 sec  (  0.6%)
Initial guess               ....       1.030 sec  (  0.1%)
Orbital Transformation      ....       0.000 sec  (  0.0%)
Orbital Orthonormalization  ....       0.914 sec  (  0.1%)
DIIS solution               ....       0.326 sec  (  0.0%)
SOSCF solution              ....       0.712 sec  (  0.1%)
Grid generation             ....      64.984 sec  (  5.9%)

------------------------------------------------------------------------------
                              ORCA MP2 CALCULATION
------------------------------------------------------------------------------


-------------
RI-MP2 ENERGY
-------------
Dimension of the basis                    ... 1095
Memory devoted to MP2                     ... 4000 MB   
Data format for buffers                   ... DOUBLE
Compression type for matrix containers    ... UNCOMPRESSED
Overall scaling of the MP2 energy         ...   2.700e-01 Eh
Calculating two index integrals           ... done (    0.081 sec)
Cholesky decomposition of V**-1           ... done (    0.794 sec)

-----------------
RI-TRANSFORMATION (AUX index driven)
-----------------

Dimension of the orbital-basis         ... 1095
Dimension of the aux-basis             ... 1897
Transformation of internal/external MOs...    0- 172 to  173-1094
Number Format for Storage              ... Double (8 Byte)
Integral mode                          ... Direct

First Phase: integral generation and transformation of MO indices
  Aux angular momentum 0               ... done (   31.807 sec)
  Aux angular momentum 1               ... done (   33.443 sec)
  Aux angular momentum 2               ... done (   41.528 sec)
  Aux angular momentum 3               ... done (   17.356 sec)
  Aux angular momentum 4               ... done (   17.436 sec)
Closing buffer VIA ( 2.25 GB; CompressionRatio= 1.00)
  Phase 1 completed in   141.719 sec
Second Phase: sorting and transformation of aux index

IA-Transformation
Memory available                       ... 3892 MB 
Max. # MO pairs treated in a batch     ... 173    
# of internal orbitals                 ... 173
# batches for internal orbitals        ... 1
Closing buffer IAV ( 2.25 GB; CompressionRatio= 1.00)
(ia|v) transformation done in    66.602 sec

  Phase 2 completed in    69.029 sec
RI-Integral transformation completed in   210.751 sec
Opening buffers                              ... done

Starting loop over batches of integrals:

Operator 0  - window                       ... (  0-172)x(173-1094)
Operator 0  - Memory available             ...  4000 MB
Operator 0  - Memory needed per MO         ...  13.3 MB
Operator 0  - Number of orbitals per batch ... 173
Operator 0  - Number of batches            ... 1

OPERATOR  0   PASS   0:  MOs     0 ...  172
  Reading integrals       ... ok
  Internal MO   2
  Internal MO   5
  Internal MO   8
  Internal MO  11
  Internal MO  14
  Internal MO  17
  Internal MO  20
  Internal MO  23
  Internal MO  26
  Internal MO  29
  Internal MO  32
  Internal MO  35
  Internal MO  38
  Internal MO  41
  Internal MO  44
  Internal MO  47
  Internal MO  50
  Internal MO  53
  Internal MO  56
  Internal MO  59
  Internal MO  62
  Internal MO  65
  Internal MO  68
  Internal MO  71
  Internal MO  74
  Internal MO  77
  Internal MO  80
  Internal MO  83
  Internal MO  86
  Internal MO  89
  Internal MO  92
  Internal MO  95
  Internal MO  98
  Internal MO 101
  Internal MO 104
  Internal MO 107
  Internal MO 110
  Internal MO 113
  Internal MO 116
  Internal MO 119
  Internal MO 122
  Internal MO 125
  Internal MO 128
  Internal MO 131
  Internal MO 134
  Internal MO 137
  Internal MO 140
  Internal MO 143
  Internal MO 146
  Internal MO 149
  Internal MO 152
  Internal MO 155
  Internal MO 158
  Internal MO 161
  Internal MO 164
  Internal MO 167
  Internal MO 170
Time spent in pair loops =  2856.065 sec

-----------------------------------------------
 RI-MP2 CORRELATION ENERGY:     -2.218739700 Eh
-----------------------------------------------


-------
TIMINGS
-------

Total time                : 3067.729 sec
Integral trafo            :  210.763 sec (  6.9%)
I/O of integrals          :    1.655 sec (  0.1%)
K(i,j) Operators          : 2653.251 sec ( 86.5%)
T(i,j) pair energies      :  171.271 sec (  5.6%)
V-calculation             :    0.081 sec (  0.0%)
V**(-1/2)                 :    0.794 sec (  0.0%)
Gamma(ia|P)               :    0.000 sec (  0.0%)
Gamma-Trafo               :    0.000 sec (  0.0%)
D(virtual)                :    0.000 sec (  0.0%)
D(internal)               :    0.000 sec (  0.0%)
W(virtual)                :    0.000 sec (  0.0%)
W(internal)               :    0.000 sec (  0.0%)
L(virtual)                :    0.000 sec (  0.0%)
L(internal)               :    0.000 sec (  0.0%)
G(D)                      :    0.000 sec (  0.0%)
G(Z)                      :    0.000 sec (  0.0%)
Z-Vector Solution         :    0.000 sec (  0.0%)
Z-Vector Solution         :    0.000 sec (  0.0%)
3-Index Derivative 
+ Separable RIJ part      :    0.000 sec (  0.0%)
2-Index Derivative 
+ Separable RIJ part      :    0.000 sec (  0.0%)
Separable Gradient (COSX) :    0.000 sec (  0.0%)


---------------------------------------
MP2 TOTAL ENERGY:    -6025.869459680 Eh
---------------------------------------

Entering the calculation of the dispersion correction...

Checking the input atom types...

Done


-------------------------------------------------------------------------------
                          DFT DISPERSION CORRECTION                            
                                                                               
                                DFTD3 V2.1  Rev 6                               
                          USING Becke-Johnson damping                          
-------------------------------------------------------------------------------
The B2PLYP functional is recognized
Active option DFTDOPT                   ...         4   

molecular C6(AA) [au] = 68454.613651 


            DFT-D V3
 parameters
 s6 scaling factor         :     0.6400 
 a1 scaling factor         :     0.3065 
 s8 scaling factor         :     0.9147 
 a2 scaling factor         :     5.0570 
 ad hoc parameters k1-k3   :    16.0000     1.3333    -4.0000 

 Edisp/kcal,au: -50.447974267354  -0.080393955743 
 E6   /kcal   : -25.104564022 
 E8   /kcal   : -25.343410245 
 % E8         :  50.236725286 

-------------------------   ----------------
Dispersion correction           -0.080393956
-------------------------   ----------------


-------------------------   --------------------
FINAL SINGLE POINT ENERGY     -6025.949853635436
-------------------------   --------------------


                            ***************************************
                            *     ORCA property calculations      *
                            ***************************************


  WARNING: The energy has been calculated at the MP2 level but the densities
           used in the property calculations are still SCF densities
           MP2 response densities have not been calculated 
           use %mp2 Density relaxed end
           or  %mp2 Density unrelaxed end

                                    ---------------------
                                    Active property flags
                                    ---------------------
   (+) Dipole Moment


------------------------------------------------------------------------------
                       ORCA ELECTRIC PROPERTIES CALCULATION
------------------------------------------------------------------------------

Dipole Moment Calculation                       ... on
Quadrupole Moment Calculation                   ... off
Polarizability Calculation                      ... off
GBWName                                         ... Pb2Cl11_6NH3CH3_-1_mp2_sp2_1.orca.gbw
Electron density file                           ... Pb2Cl11_6NH3CH3_-1_mp2_sp2_1.orca.scfp.tmp

-------------
DIPOLE MOMENT
-------------
                                X             Y             Z
Electronic contribution:    -31.64921       0.89002      35.04269
Nuclear contribution   :     32.95689      -1.42359     -36.21770
                        -----------------------------------------
Total Dipole Moment    :      1.30769      -0.53357      -1.17501
                        -----------------------------------------
Magnitude (a.u.)       :      1.83722
Magnitude (Debye)      :      4.66985


Timings for individual modules:

Sum of individual times         ...     4182.406 sec (=  69.707 min)
GTO integral calculation        ...        6.685 sec (=   0.111 min)   0.2 %
SCF iterations                  ...     1107.289 sec (=  18.455 min)  26.5 %
MP2 module                      ...     3068.432 sec (=  51.141 min)  73.4 %
                             ****ORCA TERMINATED NORMALLY****
TOTAL RUN TIME: 0 days 1 hours 9 minutes 43 seconds 319 msec
