
                                 *****************
                                 * O   R   C   A *
                                 *****************

           --- An Ab Initio, DFT and Semiempirical electronic structure package ---

                  #######################################################
                  #                        -***-                        #
                  #  Department of molecular theory and spectroscopy    #
                  #              Directorship: Frank Neese              #
                  # Max Planck Institute for Chemical Energy Conversion #
                  #                  D-45470 Muelheim/Ruhr              #
                  #                       Germany                       #
                  #                                                     #
                  #                  All rights reserved                #
                  #                        -***-                        #
                  #######################################################


                         Program Version 3.0.3 - RELEASE   -


 With contributions from (in alphabetic order):
   Ute Becker             : Parallelization
   Dmytro Bykov           : SCF Hessian
   Dmitry Ganyushin       : Spin-Orbit,Spin-Spin,Magnetic field MRCI
   Andreas Hansen         : Spin unrestricted coupled pair/coupled cluster methods
   Dimitrios Liakos       : Extrapolation schemes; parallel MDCI
   Robert Izsak           : Overlap fitted RIJCOSX, COSX-SCS-MP3
   Christian Kollmar      : KDIIS, OOCD, Brueckner-CCSD(T), CCSD density
   Simone Kossmann        : Meta GGA functionals, TD-DFT gradient, OOMP2, MP2 Hessian
   Taras Petrenko         : DFT Hessian,TD-DFT gradient, ASA and ECA modules, normal mode analysis, Resonance Raman, ABS, FL, XAS/XES, NRVS
   Christoph Reimann      : Effective Core Potentials
   Michael Roemelt        : Restricted open shell CIS
   Christoph Riplinger    : Improved optimizer, TS searches, QM/MM, DLPNO-CCSD
   Barbara Sandhoefer     : DKH picture change effects
   Igor Schapiro          : Molecular dynamics
   Kantharuban Sivalingam : CASSCF convergence, NEVPT2
   Boris Wezisla          : Elementary symmetry handling
   Frank Wennmohs         : Technical directorship


 We gratefully acknowledge several colleagues who have allowed us to
 interface, adapt or use parts of their codes:
   Stefan Grimme, W. Hujo, H. Kruse, T. Risthaus : VdW corrections, initial TS optimization,
                                                   DFT functionals, gCP
   Ed Valeev                                     : LibInt (2-el integral package), F12 methods
   Garnet Chan, S. Sharma, R. Olivares           : DMRG
   Ulf Ekstrom                                   : XCFun DFT Library
   Mihaly Kallay                                 : mrcc  (arbitrary order and MRCC methods)
   Andreas Klamt, Michael Diedenhofen            : otool_cosmo (COSMO solvation model)
   Frank Weinhold                                : gennbo (NPA and NBO analysis)
   Christopher J. Cramer and Donald G. Truhlar   : smd solvation model


 Your calculation uses the libint2 library for the computation of 2-el integrals
 For citations please refer to: http://libint.valeyev.net

 This ORCA versions uses:
   CBLAS   interface :  Fast vector & matrix operations
   LAPACKE interface :  Fast linear algebra routines
   SCALAPACK package :  Parallel linear algebra routines


Your calculation utilizes the basis: Ahlrichs-TZV
Cite in your paper:
H - Kr: A. Schaefer, H. Horn and R. Ahlrichs, J. Chem. Phys. 97, 2571 (1992).

The def2-TZV basis will be loaded
Cite in your paper:
 	F. Weigend, R. Ahlrichs, Phys. Chem. Chem. Phys. 2005, 7, 3297.

Your calculation utilizes the atom-pairwise dispersion correction
with the Becke-Johnson damping scheme (D3BJ)
Cite in your paper:
S.Grimme, S.Ehrlich, L.Goerigk, J Comput Chem, (2011), 32, 1456–1465 
S.Grimme, J.Antony, S.Ehrlich and H.Krieg, J.Chem.Phys., 132, (2010), 154104 
   

================================================================================
                                        WARNINGS
                       Please study these warnings very carefully!
================================================================================

WARNING: The RI method has been chosen with no auxiliary basis (AUX or GTOAUX in BASIS block)
        Standard TZV/J expansion basis used (GTOAUX=TZV_J)

Now building the actual basis set
cite the ECPs for Pb [SD(60,MDF)] as follows:
  B. Metz, H. Stoll, M. Dolg, J. Chem. Phys. 113, 2563 (2000).

ECP parameters for Pb [SD(60,MDF)] have been obtained from:
  pseudopotential library of the Stuttgart/Cologne group
  http://www.theochem.uni-stuttgart.de/pseudopotentials/

cite the ECP basis sets for Pb [DEF2-TZVP] as follows:
  F. Weigend, R. Ahlrichs; Phys. Chem. Chem. Phys. 7, 3297(2005).

ECP basis sets for Pb [DEF2-TZVP] have been obtained from:
  Turbomole basis set library
  ftp://ftp.chemie.uni-karlsruhe.de/pub/basen/



INFO   : the flag for use of LIBINT has been found!

================================================================================
                                       INPUT FILE
================================================================================
NAME = PbMACl3_mp2_md2_12.orca
|  1> ! RIJCOSX RI-B2PLYP D3BJ def2-TZVP ECP{def2-TZVP} TIGHTSCF Grid5 FinalGrid6 SlowConv MORead
|  2> %method
|  3>  RunTyp Gradient
|  4>  end
|  5> %maxcore 1000
|  6> %moinp "previous.gbw"
|  7> *xyz 0 1
|  8> C -0.394281 0.276013 -0.426662 
|  9> N -1.165380 -0.685592 -1.253010 
| 10> H 0.248796 -0.278576 0.260517 
| 11> H -1.090820 0.897444 0.140826 
| 12> H 0.215705 0.904875 -1.079130 
| 13> H -1.783150 -1.324970 -0.698370 
| 14> H -0.582260 -1.326300 -1.835140 
| 15> H -1.813140 -0.240924 -1.938260 
| 16> Pb -2.742870 -2.774520 -3.031780 
| 17> Cl -0.915391 -3.065780 -1.369550 
| 18> Cl -3.425430 -0.926339 -1.405030 
| 19> Cl -2.642310 -3.182350 -0.599195 
| 20> *
| 21> 
| 22>                          ****END OF INPUT****
================================================================================

                     *******************************
                     * Energy+Gradient Calculation *
                     *******************************

---------------------------------
CARTESIAN COORDINATES (ANGSTROEM)
---------------------------------
  C     -0.394281    0.276013   -0.426662
  N     -1.165380   -0.685592   -1.253010
  H      0.248796   -0.278576    0.260517
  H     -1.090820    0.897444    0.140826
  H      0.215705    0.904875   -1.079130
  H     -1.783150   -1.324970   -0.698370
  H     -0.582260   -1.326300   -1.835140
  H     -1.813140   -0.240924   -1.938260
  Pb    -2.742870   -2.774520   -3.031780
  Cl    -0.915391   -3.065780   -1.369550
  Cl    -3.425430   -0.926339   -1.405030
  Cl    -2.642310   -3.182350   -0.599195

----------------------------
CARTESIAN COORDINATES (A.U.)
----------------------------
  NO LB      ZA    FRAG    MASS        X           Y           Z
   0 C     6.0000    0    12.011         -0.745083109808605          0.521588979402006         -0.806274331751109
   1 N     7.0000    0    14.007         -2.202249041949148         -1.295581119607339         -2.367845743064668
   2 H     1.0000    0     1.008          0.470156303215072         -0.526432347483247          0.492305783230763
   3 H     1.0000    0     1.008         -2.061351061403979          1.695923380530824          0.266122572535594
   4 H     1.0000    0     1.008          0.407623375717484          1.709965935431992         -2.039260162898440
   5 H     1.0000    0     1.008         -3.369665155701680         -2.503830435661641         -1.319728040146585
   6 H     1.0000    0     1.008         -1.100311938736988         -2.506343771419756         -3.467912017404246
   7 H     1.0000    0     1.008         -3.426338042457978         -0.455280379088844         -3.662780576334205
   8 Pb   22.0000*   0   207.200  -5.183273120948583  -5.243082953087191  -5.729233898299772
   9 Cl   17.0000    0    35.453         -1.729838295456308         -5.793484586853095         -2.588074426711851
  10 Cl   17.0000    0    35.453         -6.473124590917873         -1.750527017170478         -2.655121909943376
  11 Cl   17.0000    0    35.453         -4.993242260921463         -6.013769962284295         -1.132314450814945
* core charge reduced due to ECP

--------------------------------
INTERNAL COORDINATES (ANGSTROEM)
--------------------------------
 C      0   0   0   0.000000     0.000     0.000
 N      1   0   0   1.483957     0.000     0.000
 H      1   2   0   1.092397   109.099     0.000
 H      1   2   3   1.092422   109.061   240.173
 H      1   2   3   1.092367   109.305   120.114
 H      2   1   3   1.047888   114.015    60.210
 H      2   1   3   1.043749   114.711   299.789
 H      2   1   3   1.042540   114.361   179.708
 Pb     7   2   1   2.863132    97.008   179.711
 Cl     7   2   1   1.831268   109.856   119.943
 Cl     8   2   1   1.831286   101.303   239.228
 Cl    10   7   2   1.894541   109.126    24.356

---------------------------
INTERNAL COORDINATES (A.U.)
---------------------------
 C      0   0   0   0.000000     0.000     0.000
 N      1   0   0   2.804273     0.000     0.000
 H      1   2   0   2.064332   109.099     0.000
 H      1   2   3   2.064378   109.061   240.173
 H      1   2   3   2.064274   109.305   120.114
 H      2   1   3   1.980222   114.015    60.210
 H      2   1   3   1.972399   114.711   299.789
 H      2   1   3   1.970116   114.361   179.708
 Pb     7   2   1   5.410535    97.008   179.711
 Cl     7   2   1   3.460594   109.856   119.943
 Cl     8   2   1   3.460628   101.303   239.228
 Cl    10   7   2   3.580163   109.126    24.356

---------------------
BASIS SET INFORMATION
---------------------
There are 5 groups of distinct atoms

 Group   1 Type C   : 11s6p2d1f contracted to 5s3p2d1f pattern {62111/411/11/1}
 Group   2 Type N   : 11s6p2d1f contracted to 5s3p2d1f pattern {62111/411/11/1}
 Group   3 Type H   : 5s1p contracted to 3s1p pattern {311/1}
 Group   4 Type Pb  : 10s9p8d2f contracted to 6s5p3d2f pattern {421111/33111/611/11}
 Group   5 Type Cl  : 14s9p3d1f contracted to 5s5p2d1f pattern {73211/51111/21/1}

Atom   0C    basis set group =>   1
Atom   1N    basis set group =>   2
Atom   2H    basis set group =>   3
Atom   3H    basis set group =>   3
Atom   4H    basis set group =>   3
Atom   5H    basis set group =>   3
Atom   6H    basis set group =>   3
Atom   7H    basis set group =>   3
Atom   8Pb   basis set group =>   4
Atom   9Cl   basis set group =>   5
Atom  10Cl   basis set group =>   5
Atom  11Cl   basis set group =>   5
-------------------------------
AUXILIARY BASIS SET INFORMATION
-------------------------------
There are 5 groups of distinct atoms

 Group   1 Type C   : 12s5p4d2f1g contracted to 6s4p3d1f1g pattern {711111/2111/211/2/1}
 Group   2 Type N   : 12s5p4d2f1g contracted to 6s4p3d1f1g pattern {711111/2111/211/2/1}
 Group   3 Type H   : 5s2p1d contracted to 3s1p1d pattern {311/2/1}
 Group   4 Type Pb  : 31s12p8d6f3g contracted to 31s12p8d6f3g pattern {1111111111111111111111111111111/111111111111/11111111/111111/111}
 Group   5 Type Cl  : 14s5p5d2f1g contracted to 8s4p3d1f1g pattern {71111111/2111/311/2/1}

Atom   0C    basis set group =>   1
Atom   1N    basis set group =>   2
Atom   2H    basis set group =>   3
Atom   3H    basis set group =>   3
Atom   4H    basis set group =>   3
Atom   5H    basis set group =>   3
Atom   6H    basis set group =>   3
Atom   7H    basis set group =>   3
Atom   8Pb   basis set group =>   4
Atom   9Cl   basis set group =>   5
Atom  10Cl   basis set group =>   5
Atom  11Cl   basis set group =>   5

-------------------------
ECP PARAMETER INFORMATION
-------------------------

 Group 1, Type Pb ECP SD(60,MDF) (replacing 60 core electrons, lmax=5)

Atom   8Pb   ECP group =>   1


------------------------------------------------------------------------------
                           ORCA GTO INTEGRAL CALCULATION
                           -- RI-GTO INTEGRALS CHOSEN --
------------------------------------------------------------------------------

                         BASIS SET STATISTICS AND STARTUP INFO

Gaussian basis set:
 # of primitive gaussian shells          ...  186
 # of primitive gaussian functions       ...  420
 # of contracted shells                  ...  101
 # of contracted basis functions         ...  259
 Highest angular momentum                ...    3
 Maximum contraction depth               ...    7
Auxiliary gaussian basis set:
 # of primitive gaussian shells          ...  237
 # of primitive gaussian functions       ...  643
 # of contracted shells                  ...  171
 # of contracted aux-basis functions     ...  493
 Highest angular momentum                ...    4
 Maximum contraction depth               ...    7
Ratio of auxiliary to basis functions    ...  1.90
Integral package used                  ... LIBINT
 One Electron integrals                  
   ECP integrals                         ... done
 Ordering auxiliary basis shells         ... done
 Integral threshhold             Thresh  ...  2.500e-11
 Primitive cut-off               TCut    ...  2.500e-12
 Pre-screening matrix                    ... done
 Shell pair data                         ... 
 Ordering of the shell pairs             ... done (   0.001 sec) 4663 of 5151 pairs
 Determination of significant pairs      ... done (   0.000 sec)
 Creation of shell pair data             ... done (   0.002 sec)
 Storage of shell pair data              ... done (   0.001 sec)
 Shell pair data done in (   0.004 sec)
 Computing two index integrals           ... done
 Cholesky decomposition of the V-matrix  ... done


Timings:
 Total evaluation time                   ...   0.570 sec (  0.010 min)
 One electron matrix time                ...   0.303 sec (  0.005 min) = 53.2%
 Schwartz matrix evaluation time         ...   0.219 sec (  0.004 min) = 38.3%
 Two index repulsion integral time       ...   0.008 sec (  0.000 min) =  1.5%
 Cholesky decomposition of V             ...   0.009 sec (  0.000 min) =  1.5%
 Three index repulsion integral time     ...   0.000 sec (  0.000 min) =  0.0%

-------------------------------------------------------------------------------
                                 ORCA SCF
-------------------------------------------------------------------------------

------------
SCF SETTINGS
------------
Hamiltonian:
 Density Functional     Method          .... DFT(GTOs)
 Exchange Functional    Exchange        .... B88
   X-Alpha parameter    XAlpha          ....  0.666667
   Becke's b parameter  XBeta           ....  0.004200
 Correlation Functional Correlation     .... LYP
 LDA part of GGA corr.  LDAOpt          .... VWN-3
 Gradients option       PostSCFGGA      .... off
 Hybrid DFT is turned on
   Fraction HF Exchange ScalHFX         ....  0.530000
   Scaling of DF-GGA-X  ScalDFX         ....  0.470000
   Scaling of DF-GGA-C  ScalDFC         ....  0.730000
   Scaling of DF-LDA-C  ScalLDAC        ....  0.730000
   Perturbative correction              ....  0.270000
 RI-approximation to the Coulomb term is turned on
   Number of auxiliary basis functions  .... 493
   RIJ-COSX (HFX calculated with COS-X)).... on


General Settings:
 Integral files         IntName         .... PbMACl3_mp2_md2_12.orca
 Hartree-Fock type      HFTyp           .... RHF
 Total Charge           Charge          ....    0
 Multiplicity           Mult            ....    1
 Number of Electrons    NEL             ....   92
 Basis Dimension        Dim             ....  259
 Nuclear Repulsion      ENuc            ....    706.9715920295 Eh

Convergence Acceleration:
 DIIS                   CNVDIIS         .... on
   Start iteration      DIISMaxIt       ....     0
   Startup error        DIISStart       ....  0.200000
   # of expansion vecs  DIISMaxEq       ....     5
   Bias factor          DIISBfac        ....   1.050
   Max. coefficient     DIISMaxC        ....  10.000
 Newton-Raphson         CNVNR           .... off
 SOSCF                  CNVSOSCF        .... on
   Start iteration      SOSCFMaxIt      ....   150
   Startup grad/error   SOSCFStart      ....  0.001000
 Level Shifting         CNVShift        .... on
   Level shift para.    LevelShift      ....    0.2500
   Turn off err/grad.   ShiftErr        ....    0.0000
 Zerner damping         CNVZerner       .... off
 Static damping         CNVDamp         .... on
   Fraction old density DampFac         ....    0.8500
   Max. Damping (<1)    DampMax         ....    0.9800
   Min. Damping (>=0)   DampMin         ....    0.0000
   Turn off err/grad.   DampErr         ....    0.0300
 Fernandez-Rico         CNVRico         .... off

SCF Procedure:
 Maximum # iterations   MaxIter         ....   125
 SCF integral mode      SCFMode         .... Direct
   Integral package                     .... LIBINT
 Reset frequeny         DirectResetFreq ....    20
 Integral Threshold     Thresh          ....  2.500e-11 Eh
 Primitive CutOff       TCut            ....  2.500e-12 Eh

Convergence Tolerance:
 Convergence Check Mode ConvCheckMode   .... Total+1el-Energy
 Energy Change          TolE            ....  1.000e-08 Eh
 1-El. energy change                    ....  1.000e-05 Eh
 Orbital Gradient       TolG            ....  1.000e-05
 Orbital Rotation angle TolX            ....  1.000e-05
 DIIS Error             TolErr          ....  5.000e-07


Diagonalization of the overlap matrix:
Smallest eigenvalue                        ... 1.031e-03
Time for diagonalization                   ...    0.017 sec
Threshold for overlap eigenvalues          ... 1.000e-08
Number of eigenvalues below threshold      ... 0
Time for construction of square roots      ...    0.006 sec
Total time needed                          ...    0.024 sec

---------------------
INITIAL GUESS: MOREAD
---------------------
Guess MOs are being read from file: previous.gbw
Input geometry compatible with but different from current geometry
Input basis set matches current basis set (good)
MOs were renormalized
MOs were reorthogonalized (Schmidt)
                      ------------------
                      INITIAL GUESS DONE (   0.1 sec)
                      ------------------
-------------------
DFT GRID GENERATION
-------------------

General Integration Accuracy     IntAcc      ...  5.010
Radial Grid Type                 RadialGrid  ... Gauss-Chebyshev
Angular Grid (max. acc.)         AngularGrid ... Lebedev-434
Angular grid pruning method      GridPruning ... 3 (G Style)
Weight generation scheme         WeightScheme... Becke
Basis function cutoff            BFCut       ...    1.0000e-11
Integration weight cutoff        WCut        ...    1.0000e-14
Grids for H and He will be reduced by one unit

# of grid points (after initial pruning)     ... 115882 (   0.0 sec)
# of grid points (after weights+screening)   ... 107714 (   0.2 sec)
nearest neighbour list constructed           ...    0.0 sec
Grid point re-assignment to atoms done       ...    0.0 sec
Grid point division into batches done        ...    0.9 sec
Reduced shell lists constructed in    3.5 sec

Total number of grid points                  ...   107714
Total number of batches                      ...     1688
Average number of points per batch           ...       63
Average number of grid points per atom       ...     8976
Average number of shells per batch           ...    59.49 (58.90%)
Average number of basis functions per batch  ...   160.20 (61.85%)
Average number of large shells per batch     ...    46.26 (77.76%)
Average number of large basis fcns per batch ...   122.12 (76.23%)
Maximum spatial batch extension              ...  35.03, 35.93, 31.13 au
Average spatial batch extension              ...   2.44,  2.38,  2.41 au

Time for grid setup =    3.755 sec

--------------------
COSX GRID GENERATION
--------------------

General Integration Accuracy     IntAcc      ...  3.340
Radial Grid Type                 RadialGrid  ... Gauss-Chebyshev
Angular Grid (max. acc.)         AngularGrid ... Lebedev-50
Angular grid pruning method      GridPruning ... 3 (G Style)
Weight generation scheme         WeightScheme... Becke
Basis function cutoff            BFCut       ...    1.0000e-11
Integration weight cutoff        WCut        ...    1.0000e-14
Grids for H and He will be reduced by one unit

# of grid points (after initial pruning)     ...   6578 (   0.0 sec)
# of grid points (after weights+screening)   ...   6167 (   0.0 sec)
nearest neighbour list constructed           ...    0.0 sec
Grid point re-assignment to atoms done       ...    0.0 sec
Grid point division into batches done        ...    0.0 sec
Reduced shell lists constructed in    0.2 sec

Total number of grid points                  ...     6167
Total number of batches                      ...      102
Average number of points per batch           ...       60
Average number of grid points per atom       ...      514
Average number of shells per batch           ...    71.29 (70.59%)
Average number of basis functions per batch  ...   193.54 (74.73%)
Average number of large shells per batch     ...    57.74 (80.99%)
Average number of large basis fcns per batch ...   154.98 (80.08%)
Maximum spatial batch extension              ...  33.80, 28.17, 36.53 au
Average spatial batch extension              ...   6.14,  5.69,  6.58 au

Overlap Fitting                  UseSFitting ... on
Constructing numerical overlap ... done (      0.1 sec)
Inverting numerical overlap    ... done (      0.0 sec)
Obtaining analytic overlap     ... done (      0.0 sec)
Final contraction and storage  ... done (      0.0 sec)


General Integration Accuracy     IntAcc      ...  3.670
Radial Grid Type                 RadialGrid  ... Gauss-Chebyshev
Angular Grid (max. acc.)         AngularGrid ... Lebedev-50
Angular grid pruning method      GridPruning ... 3 (G Style)
Weight generation scheme         WeightScheme... Becke
Basis function cutoff            BFCut       ...    1.0000e-11
Integration weight cutoff        WCut        ...    1.0000e-14
Grids for H and He will be reduced by one unit

# of grid points (after initial pruning)     ...   8124 (   0.0 sec)
# of grid points (after weights+screening)   ...   7596 (   0.0 sec)
nearest neighbour list constructed           ...    0.0 sec
Grid point re-assignment to atoms done       ...    0.0 sec
Grid point division into batches done        ...    0.0 sec
Reduced shell lists constructed in    0.2 sec

Total number of grid points                  ...     7596
Total number of batches                      ...      124
Average number of points per batch           ...       61
Average number of grid points per atom       ...      633
Average number of shells per batch           ...    70.46 (69.76%)
Average number of basis functions per batch  ...   191.32 (73.87%)
Average number of large shells per batch     ...    56.85 (80.69%)
Average number of large basis fcns per batch ...   151.97 (79.43%)
Maximum spatial batch extension              ...  35.40, 29.13, 37.97 au
Average spatial batch extension              ...   5.63,  5.24,  6.02 au

Overlap Fitting                  UseSFitting ... on
Constructing numerical overlap ... done (      0.1 sec)
Inverting numerical overlap    ... done (      0.0 sec)
Obtaining analytic overlap     ... done (      0.0 sec)
Final contraction and storage  ... done (      0.0 sec)


General Integration Accuracy     IntAcc      ...  4.010
Radial Grid Type                 RadialGrid  ... Gauss-Chebyshev
Angular Grid (max. acc.)         AngularGrid ... Lebedev-110
Angular grid pruning method      GridPruning ... 3 (G Style)
Weight generation scheme         WeightScheme... Becke
Basis function cutoff            BFCut       ...    1.0000e-11
Integration weight cutoff        WCut        ...    1.0000e-14
Grids for H and He will be reduced by one unit

# of grid points (after initial pruning)     ...  15170 (   0.0 sec)
# of grid points (after weights+screening)   ...  14261 (   0.0 sec)
nearest neighbour list constructed           ...    0.0 sec
Grid point re-assignment to atoms done       ...    0.0 sec
Grid point division into batches done        ...    0.0 sec
Reduced shell lists constructed in    0.4 sec

Total number of grid points                  ...    14261
Total number of batches                      ...      230
Average number of points per batch           ...       62
Average number of grid points per atom       ...     1188
Average number of shells per batch           ...    66.81 (66.14%)
Average number of basis functions per batch  ...   180.83 (69.82%)
Average number of large shells per batch     ...    53.06 (79.42%)
Average number of large basis fcns per batch ...   141.59 (78.30%)
Maximum spatial batch extension              ...  36.82, 34.29, 39.26 au
Average spatial batch extension              ...   4.65,  4.74,  4.82 au

Overlap Fitting                  UseSFitting ... on
Constructing numerical overlap ... done (      0.2 sec)
Inverting numerical overlap    ... done (      0.0 sec)
Obtaining analytic overlap     ... done (      0.0 sec)
Final contraction and storage  ... done (      0.0 sec)

Time for X-Grid setup             =    1.408 sec
--------------
SCF ITERATIONS
--------------
ITER       Energy         Delta-E        Max-DP      RMS-DP      [F,P]     Damp
               ***  Starting incremental Fock matrix formation  ***
  0  -1668.0723301655   0.000000000000 0.05598203  0.00092633  0.6016586 0.8500
  1  -1668.1361853506  -0.063855185117 0.05685132  0.00107141  0.5121066 0.8500
                               ***Turning on DIIS***
  2  -1668.1927474663  -0.056562115622 0.04607840  0.00099054  0.4356586 0.8500
  3  -1668.2395520291  -0.046804562798 0.03164213  0.00079546  0.3705771 0.8500
  4  -1668.2792570947  -0.039705065630 0.02503972  0.00066778  0.3151164 0.8500
  5  -1668.3129903495  -0.033733254835 0.02304471  0.00060483  0.2678942 0.8500
  6  -1668.3423944075  -0.029404057990 0.02160527  0.00055610  0.2277321 0.8500
  7  -1668.3682680923  -0.025873684828 0.02117147  0.00051554  0.1935880 0.8500
  8  -1668.3910401024  -0.022772010097 0.01936968  0.00046125  0.1645655 0.8500
  9  -1668.4108541382  -0.019814035791 0.01674001  0.00040194  0.1398935 0.8500
 10  -1668.4280255276  -0.017171389336 0.01426240  0.00035054  0.1189193 0.8500
 11  -1668.4429100144  -0.014884486809 0.01221888  0.00030980  0.1010893 0.8500
 12  -1668.4558227111  -0.012912696771 0.01046486  0.00027725  0.0859323 0.8500
 13  -1668.4670227939  -0.011200082738 0.00878403  0.00024970  0.0730478 0.8500
 14  -1668.4767268383  -0.009704044416 0.00845115  0.00022633  0.0620951 0.8500
 15  -1668.4851285899  -0.008401751618 0.00832467  0.00020768  0.0527847 0.8500
 16  -1668.4924037508  -0.007275160918 0.00816763  0.00019378  0.0448705 0.8500
 17  -1668.4987081111  -0.006304360305 0.00798678  0.00018391  0.0381430 0.8500
 18  -1668.5041768945  -0.005468783377 0.00777696  0.00017701  0.0324243 0.8500
 19  -1668.5089263356  -0.004749441134 0.05023289  0.00114782  0.0275631 0.0000
               *** Restarting incremental Fock matrix formation ***
                                   *** Resetting DIIS ***
 20  -1668.5412812546  -0.032354918935 0.01008195  0.00025069  0.0044426 0.0000
 21  -1668.5419645369  -0.000683282310 0.00926598  0.00027228  0.0045322 0.0000
 22  -1668.5426765300  -0.000711993109 0.01259168  0.00031716  0.0039940 0.0000
 23  -1668.5434426095  -0.000766079511 0.01421202  0.00037545  0.0039662 0.0000
 24  -1668.5442449426  -0.000802333121 0.00864637  0.00024488  0.0038402 0.0000
 25  -1668.5447281394  -0.000483196761 0.02355517  0.00058175  0.0029046 0.0000
 26  -1668.5452946124  -0.000566473047 0.00799641  0.00022202  0.0047854 0.0000
 27  -1668.5458355319  -0.000540919453 0.01224310  0.00031624  0.0027237 0.0000
 28  -1668.5461038284  -0.000268296525 0.00683138  0.00018840  0.0028803 0.0000
 29  -1668.5463217326  -0.000217904199 0.00724897  0.00019206  0.0020200 0.0000
 30  -1668.5464313127  -0.000109580057 0.00618689  0.00016985  0.0020714 0.0000
 31  -1668.5465112153  -0.000079902589 0.00387758  0.00010987  0.0021684 0.0000
 32  -1668.5465942990  -0.000083083775 0.00378309  0.00009106  0.0009699 0.0000
               *** Restarting incremental Fock matrix formation ***
                                   *** Resetting DIIS ***
 33  -1668.5438704591   0.002723839912 0.00209714  0.00006298  0.0011841 0.0000
 34  -1668.5438844053  -0.000013946181 0.00192774  0.00003481  0.0010563 0.0000
                      *** Initiating the SOSCF procedure ***
                           *** Shutting down DIIS ***
                      *** Re-Reading the Fockian *** 
                      *** Removing any level shift *** 
ITER      Energy       Delta-E        Grad      Rot      Max-DP    RMS-DP
 35  -1668.54389495  -0.0000105480  0.000479  0.000479  0.001044  0.000027
               *** Restarting incremental Fock matrix formation ***
 36  -1668.54389999  -0.0000050337  0.000316  0.003392  0.002503  0.000064
 37  -1668.54390821  -0.0000082205  0.000404  0.016608  0.008459  0.000242
 38  -1668.54390618   0.0000020311  0.000693  0.005880  0.002876  0.000082
 39  -1668.54391558  -0.0000093987  0.000089  0.000565  0.000895  0.000021
 40  -1668.54391602  -0.0000004453  0.000049  0.000420  0.000308  0.000007
 41  -1668.54391614  -0.0000001196  0.000013  0.000149  0.000109  0.000002
 42  -1668.54391613   0.0000000121  0.000005  0.000064  0.000077  0.000002
 43  -1668.54391613  -0.0000000036  0.000004  0.000053  0.000069  0.000002
                  ***Gradient check signals convergence***
              ***Rediagonalizing the Fockian in SOSCF/NRSCF***

               *****************************************************
               *                     SUCCESS                       *
               *           SCF CONVERGED AFTER  44 CYCLES          *
               *****************************************************

Old exchange energy                            =    -59.312012147 Eh
New exchange energy                            =    -59.315077713 Eh
Exchange energy change after final integration =     -0.003065566 Eh
Total energy after final integration           =  -1668.546981718 Eh
Final COS-X integration done in                =    23.739 sec

----------------
TOTAL SCF ENERGY
----------------

Total Energy       :        -1668.54698172 Eh          -45403.47164 eV

Components:
Nuclear Repulsion  :          706.97159203 Eh           19237.67504 eV
Electronic Energy  :        -2375.51857375 Eh          -64641.14668 eV

One Electron Energy:        -3783.74885992 Eh         -102961.04092 eV
Two Electron Energy:         1408.23028617 Eh           38319.89423 eV

Virial components:
Potential Energy   :        -3208.15157474 Eh          -87298.24251 eV
Kinetic Energy     :         1539.60459303 Eh           41894.77087 eV
Virial Ratio       :            2.08375033


DFT components:
N(Alpha)           :       46.000009643099 electrons
N(Beta)            :       46.000009643099 electrons
N(Total)           :       92.000019286198 electrons
E(X)               :      -52.697113447189 Eh       
E(C)               :       -2.639285538927 Eh       
E(XC)              :      -55.336398986116 Eh       

---------------
SCF CONVERGENCE
---------------

  Last Energy change         ...   -2.0877e-08  Tolerance :   1.0000e-08
  Last MAX-Density change    ...    6.7835e-14  Tolerance :   1.0000e-07
  Last RMS-Density change    ...    5.4390e-16  Tolerance :   5.0000e-09
  Last Orbital Gradient      ...    1.9159e-06  Tolerance :   1.0000e-05
  Last Orbital Rotation      ...    2.8300e-05  Tolerance :   1.0000e-05

             **** THE GBW FILE WAS UPDATED (PbMACl3_mp2_md2_12.orca.gbw) ****
             **** DENSITY FILE WAS UPDATED (PbMACl3_mp2_md2_12.orca.scfp.tmp) ****
             **** ENERGY FILE WAS UPDATED (PbMACl3_mp2_md2_12.orca.en.tmp) ****
----------------
ORBITAL ENERGIES
----------------

  NO   OCC          E(Eh)            E(eV) 
   0   2.0000    -102.886123     -2799.6738 
   1   2.0000    -102.869944     -2799.2335 
   2   2.0000    -102.825812     -2798.0326 
   3   2.0000     -14.918422      -405.9509 
   4   2.0000     -10.687051      -290.8094 
   5   2.0000      -9.900275      -269.4002 
   6   2.0000      -9.883683      -268.9487 
   7   2.0000      -9.840125      -267.7634 
   8   2.0000      -7.538574      -205.1350 
   9   2.0000      -7.533944      -205.0090 
  10   2.0000      -7.532827      -204.9787 
  11   2.0000      -7.522041      -204.6852 
  12   2.0000      -7.517102      -204.5507 
  13   2.0000      -7.516533      -204.5353 
  14   2.0000      -7.476384      -203.4427 
  15   2.0000      -7.474812      -203.4000 
  16   2.0000      -7.474654      -203.3957 
  17   2.0000      -5.778206      -157.2330 
  18   2.0000      -3.551996       -96.6547 
  19   2.0000      -3.549714       -96.5926 
  20   2.0000      -3.544446       -96.4493 
  21   2.0000      -1.140292       -31.0289 
  22   2.0000      -1.068212       -29.0675 
  23   2.0000      -0.958945       -26.0942 
  24   2.0000      -0.945446       -25.7269 
  25   2.0000      -0.939826       -25.5740 
  26   2.0000      -0.936270       -25.4772 
  27   2.0000      -0.932333       -25.3701 
  28   2.0000      -0.891598       -24.2616 
  29   2.0000      -0.849100       -23.1052 
  30   2.0000      -0.807592       -21.9757 
  31   2.0000      -0.662995       -18.0410 
  32   2.0000      -0.656386       -17.8612 
  33   2.0000      -0.593620       -16.1532 
  34   2.0000      -0.577358       -15.7107 
  35   2.0000      -0.518633       -14.1127 
  36   2.0000      -0.513567       -13.9749 
  37   2.0000      -0.492609       -13.4046 
  38   2.0000      -0.441302       -12.0084 
  39   2.0000      -0.416515       -11.3339 
  40   2.0000      -0.377882       -10.2827 
  41   2.0000      -0.352151        -9.5825 
  42   2.0000      -0.329908        -8.9773 
  43   2.0000      -0.312366        -8.4999 
  44   2.0000      -0.265443        -7.2231 
  45   2.0000      -0.130423        -3.5490 
  46   0.0000      -0.036914        -1.0045 
  47   0.0000       0.001291         0.0351 
  48   0.0000       0.021435         0.5833 
  49   0.0000       0.052306         1.4233 
  50   0.0000       0.098311         2.6752 
  51   0.0000       0.119659         3.2561 
  52   0.0000       0.124450         3.3864 
  53   0.0000       0.130559         3.5527 
  54   0.0000       0.135756         3.6941 
  55   0.0000       0.146210         3.9786 
  56   0.0000       0.150040         4.0828 
  57   0.0000       0.152307         4.1445 
  58   0.0000       0.166417         4.5284 
  59   0.0000       0.216106         5.8805 
  60   0.0000       0.226347         6.1592 
  61   0.0000       0.237409         6.4602 
  62   0.0000       0.253250         6.8913 
  63   0.0000       0.261775         7.1233 
  64   0.0000       0.282565         7.6890 
  65   0.0000       0.286157         7.7867 
  66   0.0000       0.296069         8.0565 
  67   0.0000       0.310358         8.4453 
  68   0.0000       0.341251         9.2859 
  69   0.0000       0.359891         9.7931 
  70   0.0000       0.372979        10.1493 
  71   0.0000       0.379424        10.3247 
  72   0.0000       0.401859        10.9351 
  73   0.0000       0.409393        11.1401 
  74   0.0000       0.413368        11.2483 
  75   0.0000       0.427324        11.6281 
  76   0.0000       0.437931        11.9167 
  77   0.0000       0.457349        12.4451 
  78   0.0000       0.464615        12.6428 
  79   0.0000       0.465520        12.6674 
  80   0.0000       0.496924        13.5220 
  81   0.0000       0.499523        13.5927 
  82   0.0000       0.515058        14.0154 
  83   0.0000       0.521234        14.1835 
  84   0.0000       0.533190        14.5088 
  85   0.0000       0.538326        14.6486 
  86   0.0000       0.545277        14.8377 
  87   0.0000       0.565425        15.3860 
  88   0.0000       0.580729        15.8024 
  89   0.0000       0.596214        16.2238 
  90   0.0000       0.606935        16.5155 
  91   0.0000       0.615053        16.7364 
  92   0.0000       0.628504        17.1025 
  93   0.0000       0.651458        17.7271 
  94   0.0000       0.677442        18.4341 
  95   0.0000       0.680951        18.5296 
  96   0.0000       0.700594        19.0641 
  97   0.0000       0.713682        19.4203 
  98   0.0000       0.724649        19.7187 
  99   0.0000       0.750415        20.4198 
 100   0.0000       0.768850        20.9215 
 101   0.0000       0.802662        21.8415 
 102   0.0000       0.818237        22.2654 
 103   0.0000       0.832361        22.6497 
 104   0.0000       0.845961        23.0198 
 105   0.0000       0.864241        23.5172 
 106   0.0000       0.872808        23.7503 
 107   0.0000       0.885936        24.1075 
 108   0.0000       0.911468        24.8023 
 109   0.0000       0.922620        25.1058 
 110   0.0000       0.937958        25.5231 
 111   0.0000       0.966451        26.2985 
 112   0.0000       0.994013        27.0485 
 113   0.0000       1.029154        28.0047 
 114   0.0000       1.042252        28.3611 
 115   0.0000       1.052505        28.6401 
 116   0.0000       1.058598        28.8059 
 117   0.0000       1.082174        29.4474 
 118   0.0000       1.090683        29.6790 
 119   0.0000       1.117862        30.4186 
 120   0.0000       1.126206        30.6456 
 121   0.0000       1.169893        31.8344 
 122   0.0000       1.201667        32.6990 
 123   0.0000       1.262203        34.3463 
 124   0.0000       1.304037        35.4846 
 125   0.0000       1.349595        36.7243 
 126   0.0000       1.362516        37.0759 
 127   0.0000       1.383130        37.6369 
 128   0.0000       1.420848        38.6632 
 129   0.0000       1.436764        39.0963 
 130   0.0000       1.526974        41.5511 
 131   0.0000       1.582851        43.0716 
 132   0.0000       1.591368        43.3033 
 133   0.0000       1.615689        43.9651 
 134   0.0000       1.634474        44.4763 
 135   0.0000       1.646689        44.8087 
 136   0.0000       1.734679        47.2030 
 137   0.0000       1.752677        47.6928 
 138   0.0000       1.787380        48.6371 
 139   0.0000       1.857935        50.5570 
 140   0.0000       1.869631        50.8752 
 141   0.0000       1.894562        51.5536 
 142   0.0000       1.898520        51.6614 
 143   0.0000       1.945304        52.9344 
 144   0.0000       1.951003        53.0895 
 145   0.0000       1.960947        53.3601 
 146   0.0000       1.970285        53.6142 
 147   0.0000       1.987040        54.0701 
 148   0.0000       2.009015        54.6681 
 149   0.0000       2.010831        54.7175 
 150   0.0000       2.020817        54.9892 
 151   0.0000       2.023043        55.0498 
 152   0.0000       2.034250        55.3548 
 153   0.0000       2.043371        55.6030 
 154   0.0000       2.067932        56.2713 
 155   0.0000       2.076484        56.5040 
 156   0.0000       2.095249        57.0146 
 157   0.0000       2.103297        57.2336 
 158   0.0000       2.125141        57.8280 
 159   0.0000       2.132237        58.0211 
 160   0.0000       2.140505        58.2461 
 161   0.0000       2.146621        58.4125 
 162   0.0000       2.152480        58.5720 
 163   0.0000       2.166476        58.9528 
 164   0.0000       2.186900        59.5086 
 165   0.0000       2.215172        60.2779 
 166   0.0000       2.235207        60.8231 
 167   0.0000       2.256222        61.3949 
 168   0.0000       2.266307        61.6694 
 169   0.0000       2.277930        61.9856 
 170   0.0000       2.289049        62.2882 
 171   0.0000       2.310173        62.8630 
 172   0.0000       2.324555        63.2544 
 173   0.0000       2.344964        63.8097 
 174   0.0000       2.351002        63.9740 
 175   0.0000       2.373470        64.5854 
 176   0.0000       2.379059        64.7375 
 177   0.0000       2.386089        64.9288 
 178   0.0000       2.389331        65.0170 
 179   0.0000       2.407479        65.5108 
 180   0.0000       2.414009        65.6885 
 181   0.0000       2.421597        65.8950 
 182   0.0000       2.438464        66.3540 
 183   0.0000       2.449663        66.6587 
 184   0.0000       2.459007        66.9130 
 185   0.0000       2.472825        67.2890 
 186   0.0000       2.480382        67.4946 
 187   0.0000       2.495710        67.9117 
 188   0.0000       2.541672        69.1624 
 189   0.0000       2.562832        69.7382 
 190   0.0000       2.608707        70.9865 
 191   0.0000       2.626626        71.4741 
 192   0.0000       2.654751        72.2394 
 193   0.0000       2.665513        72.5323 
 194   0.0000       2.687011        73.1173 
 195   0.0000       2.696265        73.3691 
 196   0.0000       2.740411        74.5704 
 197   0.0000       2.791796        75.9686 
 198   0.0000       2.793828        76.0239 
 199   0.0000       2.826163        76.9038 
 200   0.0000       2.832525        77.0769 
 201   0.0000       2.851567        77.5951 
 202   0.0000       2.879307        78.3499 
 203   0.0000       2.917993        79.4026 
 204   0.0000       2.939303        79.9825 
 205   0.0000       2.994861        81.4943 
 206   0.0000       3.049203        82.9730 
 207   0.0000       3.090511        84.0971 
 208   0.0000       3.093881        84.1888 
 209   0.0000       3.141937        85.4965 
 210   0.0000       3.222922        87.7002 
 211   0.0000       3.267130        88.9031 
 212   0.0000       3.276341        89.1538 
 213   0.0000       3.315457        90.2182 
 214   0.0000       3.348889        91.1279 
 215   0.0000       3.368849        91.6710 
 216   0.0000       3.419123        93.0391 
 217   0.0000       3.436209        93.5040 
 218   0.0000       3.582612        97.4878 
 219   0.0000       3.619546        98.4929 
 220   0.0000       3.634621        98.9031 
 221   0.0000       3.826653       104.1285 
 222   0.0000       3.863378       105.1279 
 223   0.0000       3.984084       108.4124 
 224   0.0000       4.050952       110.2320 
 225   0.0000       4.217366       114.7604 
 226   0.0000       4.247207       115.5724 
 227   0.0000       4.473489       121.7298 
 228   0.0000       4.584895       124.7613 
 229   0.0000       4.942088       134.4810 
 230   0.0000       4.979256       135.4924 
 231   0.0000       4.993404       135.8774 
 232   0.0000       5.013440       136.4226 
 233   0.0000       5.138753       139.8326 
 234   0.0000       5.231463       142.3553 
 235   0.0000       5.254320       142.9773 
 236   0.0000       5.379294       146.3780 
 237   0.0000       5.674539       154.4120 
 238   0.0000       5.693059       154.9160 
 239   0.0000       5.952393       161.9728 
 240   0.0000      11.071388       301.2678 
 241   0.0000      11.134797       302.9932 
 242   0.0000      11.175322       304.0960 
 243   0.0000      11.193926       304.6022 
 244   0.0000      11.207819       304.9803 
 245   0.0000      11.257480       306.3316 
 246   0.0000      11.318002       307.9785 
 247   0.0000      11.353758       308.9514 
 248   0.0000      11.653651       317.1120 
 249   0.0000      22.689498       617.4126 
 250   0.0000      25.675631       698.6694 
 251   0.0000      25.880777       704.2518 
 252   0.0000      25.986436       707.1269 
 253   0.0000      32.492611       884.1689 
 254   0.0000      35.562070       967.6931 
 255   0.0000      35.771131       973.3820 
 256   0.0000      35.798246       974.1198 
 257   0.0000      36.112551       982.6725 
 258   0.0000     123.659548      3364.9474 

                    ********************************
                    * MULLIKEN POPULATION ANALYSIS *
                    ********************************

-----------------------
MULLIKEN ATOMIC CHARGES
-----------------------
   0 C :   -0.257080
   1 N :   -0.226410
   2 H :    0.142802
   3 H :    0.149343
   4 H :    0.139535
   5 H :    0.289478
   6 H :    0.267132
   7 H :    0.276439
   8 Pb:    0.407811
   9 Cl:   -0.330947
  10 Cl:   -0.575765
  11 Cl:   -0.282338
Sum of atomic charges:   -0.0000000

--------------------------------
MULLIKEN REDUCED ORBITAL CHARGES
--------------------------------
  0 C s       :     3.268684  s :     3.268684
      pz      :     0.976231  p :     2.909465
      px      :     0.991404
      py      :     0.941831
      dz2     :     0.006645  d :     0.072876
      dxz     :     0.019994
      dyz     :     0.019006
      dx2y2   :     0.008348
      dxy     :     0.018882
      f0      :     0.000317  f :     0.006055
      f+1     :     0.000483
      f-1     :     0.000698
      f+2     :     0.000789
      f-2     :     0.002606
      f+3     :     0.000510
      f-3     :     0.000652
  1 N s       :     3.422795  s :     3.422795
      pz      :     1.256185  p :     3.738373
      px      :     1.236241
      py      :     1.245947
      dz2     :     0.008139  d :     0.062844
      dxz     :     0.013910
      dyz     :     0.012458
      dx2y2   :     0.014756
      dxy     :     0.013582
      f0      :     0.000092  f :     0.002398
      f+1     :     0.000222
      f-1     :     0.000230
      f+2     :     0.000210
      f-2     :     0.001157
      f+3     :     0.000240
      f-3     :     0.000247
  2 H s       :     0.835440  s :     0.835440
      pz      :     0.008244  p :     0.021758
      px      :     0.007702
      py      :     0.005812
  3 H s       :     0.828869  s :     0.828869
      pz      :     0.006861  p :     0.021789
      px      :     0.007567
      py      :     0.007361
  4 H s       :     0.838890  s :     0.838890
      pz      :     0.006680  p :     0.021575
      px      :     0.007344
      py      :     0.007550
  5 H s       :     0.655279  s :     0.655279
      pz      :     0.011214  p :     0.055243
      px      :     0.025142
      py      :     0.018887
  6 H s       :     0.684105  s :     0.684105
      pz      :     0.011476  p :     0.048763
      px      :     0.012645
      py      :     0.024642
  7 H s       :     0.676237  s :     0.676237
      pz      :     0.014553  p :     0.047324
      px      :     0.024168
      py      :     0.008603
  8 Pbs       :     3.930641  s :     3.930641
      pz      :     2.345501  p :     7.522735
      px      :     2.462630
      py      :     2.714604
      dz2     :     2.015366  d :    10.078460
      dxz     :     2.010959
      dyz     :     2.021132
      dx2y2   :     2.014448
      dxy     :     2.016556
      f0      :     0.016607  f :     0.060353
      f+1     :     0.006344
      f-1     :     0.010426
      f+2     :     0.012387
      f-2     :     0.007300
      f+3     :     0.003727
      f-3     :     0.003563
  9 Cls       :     5.921574  s :     5.921574
      pz      :     3.802153  p :    11.229137
      px      :     3.494580
      py      :     3.932404
      dz2     :     0.021642  d :     0.170521
      dxz     :     0.058966
      dyz     :     0.012980
      dx2y2   :     0.041999
      dxy     :     0.034934
      f0      :     0.000753  f :     0.009716
      f+1     :     0.001725
      f-1     :     0.000249
      f+2     :     0.001978
      f-2     :     0.001015
      f+3     :     0.001891
      f-3     :     0.002106
 10 Cls       :     5.950499  s :     5.950499
      pz      :     3.804261  p :    11.565466
      px      :     3.919270
      py      :     3.841935
      dz2     :     0.006603  d :     0.056536
      dxz     :     0.012369
      dyz     :     0.012875
      dx2y2   :     0.014262
      dxy     :     0.010427
      f0      :     0.000321  f :     0.003264
      f+1     :     0.000339
      f-1     :     0.000264
      f+2     :     0.000617
      f-2     :     0.000380
      f+3     :     0.000817
      f-3     :     0.000526
 11 Cls       :     5.927030  s :     5.927030
      pz      :     3.632122  p :    11.187262
      px      :     3.647356
      py      :     3.907784
      dz2     :     0.033474  d :     0.158297
      dxz     :     0.042339
      dyz     :     0.012875
      dx2y2   :     0.042806
      dxy     :     0.026803
      f0      :     0.001464  f :     0.009749
      f+1     :     0.001645
      f-1     :     0.000439
      f+2     :     0.001908
      f-2     :     0.001012
      f+3     :     0.001716
      f-3     :     0.001564


                     *******************************
                     * LOEWDIN POPULATION ANALYSIS *
                     *******************************

----------------------
LOEWDIN ATOMIC CHARGES
----------------------
   0 C :   -0.297883
   1 N :   -0.027676
   2 H :    0.119219
   3 H :    0.121483
   4 H :    0.117799
   5 H :    0.125599
   6 H :    0.130257
   7 H :    0.145191
   8 Pb:   -0.234817
   9 Cl:   -0.013141
  10 Cl:   -0.156456
  11 Cl:   -0.029576

-------------------------------
LOEWDIN REDUCED ORBITAL CHARGES
-------------------------------
  0 C s       :     2.854270  s :     2.854270
      pz      :     1.037992  p :     3.095562
      px      :     1.044567
      py      :     1.013004
      dz2     :     0.028645  d :     0.311059
      dxz     :     0.082637
      dyz     :     0.083081
      dx2y2   :     0.032492
      dxy     :     0.084204
      f0      :     0.005242  f :     0.036992
      f+1     :     0.003833
      f-1     :     0.005589
      f+2     :     0.004479
      f-2     :     0.007037
      f+3     :     0.004946
      f-3     :     0.005867
  1 N s       :     3.025701  s :     3.025701
      pz      :     1.230473  p :     3.775245
      px      :     1.277292
      py      :     1.267480
      dz2     :     0.026868  d :     0.215302
      dxz     :     0.049687
      dyz     :     0.045365
      dx2y2   :     0.044315
      dxy     :     0.049067
      f0      :     0.001549  f :     0.011427
      f+1     :     0.001372
      f-1     :     0.001542
      f+2     :     0.001092
      f-2     :     0.001832
      f+3     :     0.001978
      f-3     :     0.002062
  2 H s       :     0.818483  s :     0.818483
      pz      :     0.022738  p :     0.062297
      px      :     0.021589
      py      :     0.017971
  3 H s       :     0.816098  s :     0.816098
      pz      :     0.019341  p :     0.062419
      px      :     0.022658
      py      :     0.020420
  4 H s       :     0.820549  s :     0.820549
      pz      :     0.020523  p :     0.061652
      px      :     0.020516
      py      :     0.020612
  5 H s       :     0.715078  s :     0.715078
      pz      :     0.033012  p :     0.159323
      px      :     0.075145
      py      :     0.051166
  6 H s       :     0.718083  s :     0.718083
      pz      :     0.033097  p :     0.151659
      px      :     0.040942
      py      :     0.077621
  7 H s       :     0.709073  s :     0.709073
      pz      :     0.040945  p :     0.145736
      px      :     0.076734
      py      :     0.028056
  8 Pbs       :     3.722206  s :     3.722206
      pz      :     2.564884  p :     7.836850
      px      :     2.535021
      py      :     2.736945
      dz2     :     2.130998  d :    10.483715
      dxz     :     2.104521
      dyz     :     2.116881
      dx2y2   :     2.068115
      dxy     :     2.063200
      f0      :     0.055701  f :     0.192046
      f+1     :     0.021073
      f-1     :     0.029380
      f+2     :     0.038964
      f-2     :     0.022795
      f+3     :     0.014011
      f-3     :     0.010122
  9 Cls       :     5.591921  s :     5.591921
      pz      :     3.702473  p :    10.967711
      px      :     3.466867
      py      :     3.798371
      dz2     :     0.044548  d :     0.419666
      dxz     :     0.165623
      dyz     :     0.023166
      dx2y2   :     0.122032
      dxy     :     0.064297
      f0      :     0.003279  f :     0.033843
      f+1     :     0.004955
      f-1     :     0.000614
      f+2     :     0.009356
      f-2     :     0.002930
      f+3     :     0.007316
      f-3     :     0.005392
 10 Cls       :     5.699328  s :     5.699328
      pz      :     3.751919  p :    11.313662
      px      :     3.781640
      py      :     3.780103
      dz2     :     0.016243  d :     0.134318
      dxz     :     0.024424
      dyz     :     0.028862
      dx2y2   :     0.043966
      dxy     :     0.020822
      f0      :     0.000968  f :     0.009148
      f+1     :     0.000937
      f-1     :     0.000650
      f+2     :     0.001676
      f-2     :     0.001172
      f+3     :     0.002302
      f-3     :     0.001445
 11 Cls       :     5.607091  s :     5.607091
      pz      :     3.589263  p :    10.984468
      px      :     3.567983
      py      :     3.827221
      dz2     :     0.077526  d :     0.403795
      dxz     :     0.114594
      dyz     :     0.027447
      dx2y2   :     0.133371
      dxy     :     0.050857
      f0      :     0.005848  f :     0.034221
      f+1     :     0.004620
      f-1     :     0.000969
      f+2     :     0.007535
      f-2     :     0.002648
      f+3     :     0.007904
      f-3     :     0.004698


                      *****************************
                      * MAYER POPULATION ANALYSIS *
                      *****************************

  NA   - Mulliken gross atomic population
  ZA   - Total nuclear charge
  QA   - Mulliken gross atomic charge
  VA   - Mayer's total valence
  BVA  - Mayer's bonded valence
  FA   - Mayer's free valence

  ATOM       NA         ZA         QA         VA         BVA        FA
  0 C      6.2571     6.0000    -0.2571     3.8653     3.8653    -0.0000
  1 N      7.2264     7.0000    -0.2264     3.2814     3.2814     0.0000
  2 H      0.8572     1.0000     0.1428     0.9721     0.9721    -0.0000
  3 H      0.8507     1.0000     0.1493     0.9710     0.9710     0.0000
  4 H      0.8605     1.0000     0.1395     0.9625     0.9625    -0.0000
  5 H      0.7105     1.0000     0.2895     0.9428     0.9428    -0.0000
  6 H      0.7329     1.0000     0.2671     0.9494     0.9494     0.0000
  7 H      0.7236     1.0000     0.2764     0.9748     0.9748    -0.0000
  8 Pb    21.5922    22.0000     0.4078     2.0700     2.0700     0.0000
  9 Cl    17.3309    17.0000    -0.3309     1.2220     1.2220     0.0000
 10 Cl    17.5758    17.0000    -0.5758     0.6998     0.6998    -0.0000
 11 Cl    17.2823    17.0000    -0.2823     1.2432     1.2432    -0.0000

  Mayer bond orders larger than 0.1
B(  0-C ,  1-N ) :   0.9234 B(  0-C ,  2-H ) :   0.9702 B(  0-C ,  3-H ) :   0.9677 
B(  0-C ,  4-H ) :   0.9713 B(  1-N ,  5-H ) :   0.8139 B(  1-N ,  6-H ) :   0.8075 
B(  1-N ,  7-H ) :   0.8147 B(  5-H , 11-Cl) :   0.1151 B(  6-H ,  9-Cl) :   0.1205 
B(  7-H , 10-Cl) :   0.1236 B(  8-Pb,  9-Cl) :   0.7290 B(  8-Pb, 10-Cl) :   0.5370 
B(  8-Pb, 11-Cl) :   0.7492 B(  9-Cl, 11-Cl) :   0.3639 

-------
TIMINGS
-------

Total SCF time: 0 days 0 hours 11 min 11 sec 

Total time                  ....     671.702 sec
Sum of individual times     ....     646.673 sec  ( 96.3%)

Fock matrix formation       ....     639.666 sec  ( 95.2%)
  Coulomb formation         ....     492.211 sec  ( 76.9% of F)
  Split-RI-J                ....      44.492 sec  (  7.0% of F)
  Chain of spheres X        ....     471.322 sec  ( 73.7% of F)
  COS-X 1 center corr.      ....       0.000 sec  (  0.0% of F)
  XC integration            ....     147.474 sec  ( 23.1% of F)
    Basis function eval.    ....      63.295 sec  ( 42.9% of XC)
    Density eval.           ....      34.414 sec  ( 23.3% of XC)
    XC-Functional eval.     ....       6.803 sec  (  4.6% of XC)
    XC-Potential eval.      ....      40.312 sec  ( 27.3% of XC)
Diagonalization             ....       1.129 sec  (  0.2%)
Density matrix formation    ....       0.073 sec  (  0.0%)
Population analysis         ....       0.072 sec  (  0.0%)
Initial guess               ....       0.112 sec  (  0.0%)
Orbital Transformation      ....       0.000 sec  (  0.0%)
Orbital Orthonormalization  ....       0.109 sec  (  0.0%)
DIIS solution               ....       0.303 sec  (  0.0%)
SOSCF solution              ....       0.155 sec  (  0.0%)
Grid generation             ....       5.163 sec  (  0.8%)

------------------------------------------------------------------------------
                              ORCA MP2 CALCULATION
------------------------------------------------------------------------------


----------------------
RI-MP2 ENERGY+GRADIENT
----------------------
Dimension of the basis                    ...  259
Memory devoted to MP2                     ... 1000 MB   
Data format for buffers                   ... DOUBLE
Compression type for matrix containers    ... UNCOMPRESSED
Overall scaling of the MP2 energy         ...   2.700e-01 Eh
Calculating two index integrals           ... done (    0.013 sec)
Cholesky decomposition of the V-matrix    ... done
Cholesky decomposition of V**-1           ... done (    0.028 sec)

-----------------
RI-TRANSFORMATION (AUX index driven)
-----------------

Dimension of the orbital-basis         ... 259
Dimension of the aux-basis             ... 493
Transformation of internal MOs         ...    0-  45
Transformation of internal/external MOs...    0-  45 to   46- 258
Number Format for Storage              ... Double (8 Byte)
Integral mode                          ... Direct

First Phase: integral generation and transformation of MO indices
  Aux angular momentum 0               ... done (    0.578 sec)
  Aux angular momentum 1               ... done (    0.429 sec)
  Aux angular momentum 2               ... done (    0.512 sec)
  Aux angular momentum 3               ... done (    0.290 sec)
  Aux angular momentum 4               ... done (    0.248 sec)
Closing buffer VIJ ( 0.00 GB; CompressionRatio= 1.95)
Closing buffer VIA ( 0.04 GB; CompressionRatio= 1.00)
  Phase 1 completed in     2.161 sec
Second Phase: sorting and transformation of aux index

IJ-Transformation
Memory available                       ... 990 MB 
Max. # MO pairs treated in a batch     ... 46    
# of internal orbitals                 ... 46
# batches for internal orbitals        ... 1
Closing buffer IJV ( 0.00 GB; CompressionRatio= 1.00)
(ij|v) transformation done in     0.104 sec

IA-Transformation
Memory available                       ... 990 MB 
Max. # MO pairs treated in a batch     ... 46    
# of internal orbitals                 ... 46
# batches for internal orbitals        ... 1
Closing buffer IAV ( 0.04 GB; CompressionRatio= 1.00)
(ia|v) transformation done in     0.372 sec

  Phase 2 completed in     0.578 sec
RI-Integral transformation completed in     2.740 sec
Opening buffers                              ... done

Starting loop over batches of integrals:

Operator 0  - window                       ... (  0- 45)x( 46-258)
Operator 0  - Memory available             ...  1000 MB
Operator 0  - Memory needed per MO         ...   1.6 MB
Operator 0  - Number of orbitals per batch ... 46
Operator 0  - Number of batches            ... 1

OPERATOR  0   PASS   0:  MOs     0 ...   45
  Reading integrals       ... ok
  Internal MO   2
  Internal MO   5
  Internal MO   8
  Internal MO  11
  Internal MO  14
  Internal MO  17
  Internal MO  20
  Internal MO  23
  Internal MO  26
  Internal MO  29
  Internal MO  32
  Internal MO  35
  Internal MO  38
  Internal MO  41
  Internal MO  44
Closing buffer GIPV ( 0.04 GB; CompressionRatio= 1.00)
Time spent in pair loops =    44.997 sec

-----------------------------------------------
 RI-MP2 CORRELATION ENERGY:     -0.619454333 Eh
-----------------------------------------------


---------------------
MP2 DENSITY FORMATION
---------------------

Completing the external part of the density      ... done
Storing the unrelaxed density                    ... done

Calculating the xc-kernel                        ... done
Calculating G(D)                                 ... done
Completing the Lagrangian                        ... done
Solving the Z-vector equations                   ... 

------------------------------------------------------------------------------
                           ORCA CP-SCF CALCULATION
------------------------------------------------------------------------------

Input orbitals are from        ... PbMACl3_mp2_md2_12.orca.gbw
Input Perturbation             ... PbMACl3_mp2_md2_12.orca.pin.tmp
Wavefunction output            ... PbMACl3_mp2_md2_12.orca.pout.tmp
Perturbation mode              ... Real perturbation
Solver                         ... DIIS
   MaxDIIS                     ... 20
   Levelshift                  ...    3.000e-01 Eh
Max. number of iterations      ... 128
Convergence tolerance          ... 1.000e-08
Integral handling              ... Direct
COSX GridX                     ... 1
Number of perturbations        ... 1
Number of operators            ... 1
Orbital ranges used for CP-SCF:
 Operator 0:  Orbitals   0... 45  to  46...258
DFT calculation                         ... on
Exchange functional (SCF)               ... B88
Exchange functional (CP-SCF)            ... B88
   X-Alpha parameter    XAlpha (SCF)    ...  0.666667
   X-Alpha parameter    XAlpha (CP-SCF) ...  0.666667
   Becke's b parameter  XBeta (SCF)     ...  0.004200
   Becke's b parameter  XBeta (CP-SCF)  ...  0.004200
Correlation functional (SCF)            ... LYP
Correlation functional (CP-SCF)         ... LYP
 LDA part of GGA corr.  LDAOpt (SCF)    ... VWN-3
 LDA part of GGA corr.  LDAOpt (CP-SCF) ... VWN-3
Hybrid DFT                              ... on
   Exchange mixing (SCF)                ...  0.530
   Exchange mixing (CP-SCF)             ...  0.530
   GGA exch. scaling(SCF)               ...  0.470
   GGA exch. scaling (CP-SCF)           ...  0.470
   GGA corr. scaling (SCF)              ...  0.730
   GGA corr. scaling (CP-SCF)           ...  0.730
The RIJCOSX approximation is active
Variables per vector in CP-SCF ... 9798
Number of vectors sought       ... 1
Calculating the xc-kernel      ... done

Solving the CP-SCF equations by a DIIS algorithm

-----------------
CP-SCF ITERATIONS
-----------------
  Iteration   0: MaxR=  0.094294987
  Iteration   1: MaxR=  0.044255506
  Iteration   2: MaxR=  0.017250954
  Iteration   3: MaxR=  0.009145569
  Iteration   4: MaxR=  0.005633142
  Iteration   5: MaxR=  0.004101814
  Iteration   6: MaxR=  0.003028887
  Iteration   7: MaxR=  0.002136231
  Iteration   8: MaxR=  0.001328209
  Iteration   9: MaxR=  0.000785923
  Iteration  10: MaxR=  0.000535827
  Iteration  11: MaxR=  0.000373331
  Iteration  12: MaxR=  0.000251626
  Iteration  13: MaxR=  0.000144267
  Iteration  14: MaxR=  0.000078086
  Iteration  15: MaxR=  0.000050711
  Iteration  16: MaxR=  0.000032053
  Iteration  17: MaxR=  0.000020762
  Iteration  18: MaxR=  0.000014714
  Iteration  19: MaxR=  0.000010168
  Iteration  20: MaxR=  0.000006272
  Iteration  21: MaxR=  0.000002943
  Iteration  22: MaxR=  0.000001272
  Iteration  23: MaxR=  0.000000557
  Iteration  24: MaxR=  0.000000218
  Iteration  25: MaxR=  0.000000094
  Iteration  26: MaxR=  0.000000047
  Iteration  27: MaxR=  0.000000023
  Iteration  28: MaxR=  0.000000012
  Iteration  29: MaxR=  0.000000006
                              *** THE CP-SCF HAS CONVERGED *** 
done
Finalizing the relaxed density                   ... done
Transforming P to the AO basis                   ... done
Storing the relaxed density                      ... done

------------------------------------
ENERGY WEIGHTED DENSITY FINALIZATION
------------------------------------

Gathering the parts of the W-matrix              ... done
Forming the Z-density                            ... done
Transforming Z to the AO basis                   ... done
Calculating G(Z)                                 ... done
Finalizing the W-matrix                          ... done
Transforming W to the AO basis and storing       ... done
Entering the RIJONX and RIJCOSX sections
Starting the three-index derivative integrals:
Operator 0  - Memory available             ...  1000 MB
Operator 0  - Memory needed per MO         ...   1.0 MB
Operator 0  - Number of orbitals per batch ... 46
Operator 0  - Number of batches            ... 1

OPERATOR  0   PASS   0:  MOs     0 ...   45

----------------------------------
MP2 DERIVATIVE INTEGRAL GENERATION
----------------------------------


Input Correlated Electron Density   ... PbMACl3_mp2_md2_12.orca.pmp2re
Input Energy Weighted Density       ... PbMACl3_mp2_md2_12.orca.wmp2.tmp
Input SCF Electron Density          ... PbMACl3_mp2_md2_12.orca.scfp.tmp

One-Electron Terms    ...
  ECP gradient                                           ... One-Electron Terms done

-----------------------------------------------------------
MP2 COSX Grid Generation
-----------------------------------------------------------

General Integration Accuracy     IntAcc      ...  4.340
Radial Grid Type                 RadialGrid  ... Gauss-Chebyshev
Angular Grid (max. acc.)         AngularGrid ... Lebedev-302
Angular grid pruning method      GridPruning ... 3 (G Style)
Weight generation scheme         WeightScheme... Becke
Basis function cutoff            BFCut       ...    1.0000e-11
Integration weight cutoff        WCut        ...    1.0000e-14
Grids for H and He will be reduced by one unit

# of grid points (after initial pruning)     ...  57718 (   0.0 sec)
# of grid points (after weights+screening)   ...  53871 (   0.1 sec)
nearest neighbour list constructed           ...    0.0 sec
Grid point re-assignment to atoms done       ...    0.0 sec
Grid point division into batches done        ...    0.2 sec
Reduced shell lists constructed in    1.5 sec

Total number of grid points                  ...    53871
Total number of batches                      ...      847
Average number of points per batch           ...       63
Average number of grid points per atom       ...     4489
Average number of shells per batch           ...    61.19 (60.58%)
Average number of basis functions per batch  ...   165.29 (63.82%)
Average number of large shells per batch     ...    47.77 (78.07%)
Average number of large basis fcns per batch ...   126.60 (76.59%)
Maximum spatial batch extension              ...  36.77, 32.84, 43.71 au
Average spatial batch extension              ...   3.14,  3.03,  3.10 au

Overlap Fitting                  UseSFitting ... on
Two electron COSX terms .... 
Integration Timings:
Total Time                  =    95.6 sec
Basis fcn evaluation        =     0.7 sec
Density evaluation          =     1.0 sec
Integral evaluation         =    92.0 sec
K(P) evaluation             =     0.7 sec
                          .... COSX two electron terms done
COSX two-electron contribution to the gradient
     0:    -0.016375    -0.016155    -0.017798
     1:    -0.000770     0.023825     0.068264
     2:     0.098169    -0.080368     0.106325
     3:    -0.101647     0.096823     0.088726
     4:     0.093557     0.096579    -0.096101
     5:    -0.104497    -0.121913     0.091890
     6:     0.085524    -0.108021    -0.122587
     7:    -0.106927     0.076267    -0.141399
     8:    -0.007183    -0.033113    -0.086610
     9:    -0.018209     0.039950     0.049570
    10:     0.065738     0.000416     0.061973
    11:     0.012302     0.025825    -0.002395
Exchange-correlation gradient    ... done
Dispersion correction            ... 
Entering the calculation of the dispersion correction...

Checking the input atom types...

Done
done

                *********************************************
                * UNRELAXED MP2 DENSITY POPULATION ANALYSIS *
                *********************************************

------------------------------------------------------------------------------
                           ORCA POPULATION ANALYSIS
------------------------------------------------------------------------------
Input electron density              ... PbMACl3_mp2_md2_12.orca.pmp2ur
BaseName (.gbw .S,...)              ... PbMACl3_mp2_md2_12.orca

                    ********************************
                    * MULLIKEN POPULATION ANALYSIS *
                    ********************************

-----------------------
MULLIKEN ATOMIC CHARGES
-----------------------
   0 C :   -0.261513
   1 N :   -0.224853
   2 H :    0.143865
   3 H :    0.150272
   4 H :    0.140638
   5 H :    0.287094
   6 H :    0.266262
   7 H :    0.274492
   8 Pb:    0.387352
   9 Cl:   -0.322776
  10 Cl:   -0.568858
  11 Cl:   -0.271976
Sum of atomic charges:   -0.0000000

--------------------------------
MULLIKEN REDUCED ORBITAL CHARGES
--------------------------------
  0 C s       :     3.267514  s :     3.267514
      pz      :     0.974836  p :     2.905151
      px      :     0.989692
      py      :     0.940623
      dz2     :     0.008698  d :     0.081645
      dxz     :     0.021600
      dyz     :     0.020519
      dx2y2   :     0.010371
      dxy     :     0.020457
      f0      :     0.000476  f :     0.007202
      f+1     :     0.000658
      f-1     :     0.000870
      f+2     :     0.000971
      f-2     :     0.002733
      f+3     :     0.000677
      f-3     :     0.000818
  1 N s       :     3.420395  s :     3.420395
      pz      :     1.252296  p :     3.726500
      px      :     1.232475
      py      :     1.241729
      dz2     :     0.010586  d :     0.074471
      dxz     :     0.016097
      dyz     :     0.014681
      dx2y2   :     0.017274
      dxy     :     0.015833
      f0      :     0.000241  f :     0.003486
      f+1     :     0.000378
      f-1     :     0.000389
      f+2     :     0.000372
      f-2     :     0.001299
      f+3     :     0.000399
      f-3     :     0.000408
  2 H s       :     0.833338  s :     0.833338
      pz      :     0.008578  p :     0.022797
      px      :     0.008040
      py      :     0.006180
  3 H s       :     0.826907  s :     0.826907
      pz      :     0.007204  p :     0.022821
      px      :     0.007914
      py      :     0.007703
  4 H s       :     0.836744  s :     0.836744
      pz      :     0.007037  p :     0.022618
      px      :     0.007687
      py      :     0.007895
  5 H s       :     0.656851  s :     0.656851
      pz      :     0.011459  p :     0.056055
      px      :     0.025388
      py      :     0.019208
  6 H s       :     0.684292  s :     0.684292
      pz      :     0.011723  p :     0.049446
      px      :     0.012861
      py      :     0.024862
  7 H s       :     0.677535  s :     0.677535
      pz      :     0.014731  p :     0.047973
      px      :     0.024355
      py      :     0.008887
  8 Pbs       :     3.911358  s :     3.911358
      pz      :     2.354484  p :     7.548115
      px      :     2.470836
      py      :     2.722796
      dz2     :     2.010713  d :    10.055959
      dxz     :     2.006047
      dyz     :     2.017552
      dx2y2   :     2.009887
      dxy     :     2.011760
      f0      :     0.021829  f :     0.097215
      f+1     :     0.011706
      f-1     :     0.015840
      f+2     :     0.017427
      f-2     :     0.012586
      f+3     :     0.008988
      f-3     :     0.008839
  9 Cls       :     5.916305  s :     5.916305
      pz      :     3.782753  p :    11.182020
      px      :     3.483656
      py      :     3.915612
      dz2     :     0.030001  d :     0.211166
      dxz     :     0.066307
      dyz     :     0.021688
      dx2y2   :     0.050086
      dxy     :     0.043085
      f0      :     0.001243  f :     0.013284
      f+1     :     0.002262
      f-1     :     0.000712
      f+2     :     0.002496
      f-2     :     0.001530
      f+3     :     0.002410
      f-3     :     0.002631
 10 Cls       :     5.945724  s :     5.945724
      pz      :     3.788921  p :    11.518097
      px      :     3.903302
      py      :     3.825874
      dz2     :     0.014887  d :     0.098661
      dxz     :     0.020798
      dyz     :     0.021262
      dx2y2   :     0.022613
      dxy     :     0.019100
      f0      :     0.000749  f :     0.006376
      f+1     :     0.000777
      f-1     :     0.000693
      f+2     :     0.001064
      f-2     :     0.000827
      f+3     :     0.001276
      f-3     :     0.000990
 11 Cls       :     5.921686  s :     5.921686
      pz      :     3.620314  p :    11.138534
      px      :     3.627369
      py      :     3.890850
      dz2     :     0.041150  d :     0.198498
      dxz     :     0.050094
      dyz     :     0.021090
      dx2y2   :     0.050844
      dxy     :     0.035320
      f0      :     0.001958  f :     0.013258
      f+1     :     0.002186
      f-1     :     0.000915
      f+2     :     0.002394
      f-2     :     0.001504
      f+3     :     0.002221
      f-3     :     0.002080


                     *******************************
                     * LOEWDIN POPULATION ANALYSIS *
                     *******************************

----------------------
LOEWDIN ATOMIC CHARGES
----------------------
   0 C :   -0.300976
   1 N :   -0.027360
   2 H :    0.119961
   3 H :    0.122175
   4 H :    0.118538
   5 H :    0.124708
   6 H :    0.129787
   7 H :    0.144408
   8 Pb:   -0.251686
   9 Cl:   -0.005765
  10 Cl:   -0.152827
  11 Cl:   -0.020962

-------------------------------
LOEWDIN REDUCED ORBITAL CHARGES
-------------------------------
  0 C s       :     2.853674  s :     2.853674
      pz      :     1.035523  p :     3.088183
      px      :     1.042027
      py      :     1.010633
      dz2     :     0.030510  d :     0.320329
      dxz     :     0.084493
      dyz     :     0.084928
      dx2y2   :     0.034314
      dxy     :     0.086084
      f0      :     0.005476  f :     0.038791
      f+1     :     0.004052
      f-1     :     0.005803
      f+2     :     0.004692
      f-2     :     0.007510
      f+3     :     0.005180
      f-3     :     0.006079
  1 N s       :     3.024926  s :     3.024926
      pz      :     1.226447  p :     3.762030
      px      :     1.272716
      py      :     1.262867
      dz2     :     0.029003  d :     0.227507
      dxz     :     0.052258
      dyz     :     0.048039
      dx2y2   :     0.046416
      dxy     :     0.051791
      f0      :     0.001744  f :     0.012897
      f+1     :     0.001561
      f-1     :     0.001727
      f+2     :     0.001286
      f-2     :     0.002143
      f+3     :     0.002180
      f-3     :     0.002256
  2 H s       :     0.815845  s :     0.815845
      pz      :     0.023409  p :     0.064194
      px      :     0.022226
      py      :     0.018560
  3 H s       :     0.813520  s :     0.813520
      pz      :     0.019936  p :     0.064305
      px      :     0.023315
      py      :     0.021054
  4 H s       :     0.817895  s :     0.817895
      pz      :     0.021165  p :     0.063568
      px      :     0.021140
      py      :     0.021262
  5 H s       :     0.714234  s :     0.714234
      pz      :     0.033616  p :     0.161057
      px      :     0.075521
      py      :     0.051921
  6 H s       :     0.717094  s :     0.717094
      pz      :     0.033728  p :     0.153119
      px      :     0.041409
      py      :     0.077983
  7 H s       :     0.708365  s :     0.708365
      pz      :     0.041543  p :     0.147227
      px      :     0.077089
      py      :     0.028594
  8 Pbs       :     3.704614  s :     3.704614
      pz      :     2.570835  p :     7.858539
      px      :     2.543102
      py      :     2.744602
      dz2     :     2.125574  d :    10.459366
      dxz     :     2.099091
      dyz     :     2.113237
      dx2y2   :     2.063220
      dxy     :     2.058244
      f0      :     0.061080  f :     0.229168
      f+1     :     0.026487
      f-1     :     0.034855
      f+2     :     0.043938
      f-2     :     0.028096
      f+3     :     0.019280
      f-3     :     0.015431
  9 Cls       :     5.587262  s :     5.587262
      pz      :     3.684917  p :    10.925535
      px      :     3.458004
      py      :     3.782615
      dz2     :     0.052437  d :     0.455370
      dxz     :     0.170439
      dyz     :     0.031766
      dx2y2   :     0.128923
      dxy     :     0.071803
      f0      :     0.003824  f :     0.037597
      f+1     :     0.005534
      f-1     :     0.001089
      f+2     :     0.009887
      f-2     :     0.003480
      f+3     :     0.007849
      f-3     :     0.005934
 10 Cls       :     5.694755  s :     5.694755
      pz      :     3.737336  p :    11.269530
      px      :     3.767307
      py      :     3.764887
      dz2     :     0.024460  d :     0.176181
      dxz     :     0.032667
      dyz     :     0.037442
      dx2y2   :     0.052148
      dxy     :     0.029464
      f0      :     0.001411  f :     0.012361
      f+1     :     0.001383
      f-1     :     0.001093
      f+2     :     0.002143
      f-2     :     0.001635
      f+3     :     0.002771
      f-3     :     0.001926
 11 Cls       :     5.602677  s :     5.602677
      pz      :     3.578863  p :    10.941143
      px      :     3.551214
      py      :     3.811066
      dz2     :     0.084529  d :     0.439258
      dxz     :     0.120365
      dyz     :     0.035411
      dx2y2   :     0.139797
      dxy     :     0.059156
      f0      :     0.006357  f :     0.037885
      f+1     :     0.005184
      f-1     :     0.001467
      f+2     :     0.008076
      f-2     :     0.003151
      f+3     :     0.008413
      f-3     :     0.005237


                      *****************************
                      * MAYER POPULATION ANALYSIS *
                      *****************************

  NA   - Mulliken gross atomic population
  ZA   - Total nuclear charge
  QA   - Mulliken gross atomic charge
  VA   - Mayer's total valence
  BVA  - Mayer's bonded valence
  FA   - Mayer's free valence

  ATOM       NA         ZA         QA         VA         BVA        FA
  0 C      6.2615     6.0000    -0.2615     3.9108     3.7927     0.1180
  1 N      7.2249     7.0000    -0.2249     3.3562     3.1989     0.1573
  2 H      0.8561     1.0000     0.1439     0.9749     0.9551     0.0198
  3 H      0.8497     1.0000     0.1503     0.9739     0.9544     0.0196
  4 H      0.8594     1.0000     0.1406     0.9654     0.9463     0.0191
  5 H      0.7129     1.0000     0.2871     0.9475     0.9230     0.0246
  6 H      0.7337     1.0000     0.2663     0.9522     0.9278     0.0244
  7 H      0.7255     1.0000     0.2745     0.9786     0.9532     0.0255
  8 Pb    21.6126    22.0000     0.3874     2.3969     1.8672     0.5297
  9 Cl    17.3228    17.0000    -0.3228     1.4683     1.1185     0.3498
 10 Cl    17.5689    17.0000    -0.5689     0.9524     0.6679     0.2844
 11 Cl    17.2720    17.0000    -0.2720     1.4863     1.1318     0.3545

  Mayer bond orders larger than 0.1
B(  0-C ,  1-N ) :   0.8992 B(  0-C ,  2-H ) :   0.9547 B(  0-C ,  3-H ) :   0.9522 
B(  0-C ,  4-H ) :   0.9558 B(  1-N ,  5-H ) :   0.7967 B(  1-N ,  6-H ) :   0.7909 
B(  1-N ,  7-H ) :   0.7982 B(  5-H , 11-Cl) :   0.1124 B(  6-H ,  9-Cl) :   0.1186 
B(  7-H , 10-Cl) :   0.1213 B(  8-Pb,  9-Cl) :   0.6441 B(  8-Pb, 10-Cl) :   0.5167 
B(  8-Pb, 11-Cl) :   0.6564 B(  9-Cl, 11-Cl) :   0.3544 


                *******************************************
                * RELAXED MP2 DENSITY POPULATION ANALYSIS *
                *******************************************

------------------------------------------------------------------------------
                           ORCA POPULATION ANALYSIS
------------------------------------------------------------------------------
Input electron density              ... PbMACl3_mp2_md2_12.orca.pmp2re
BaseName (.gbw .S,...)              ... PbMACl3_mp2_md2_12.orca

                    ********************************
                    * MULLIKEN POPULATION ANALYSIS *
                    ********************************

-----------------------
MULLIKEN ATOMIC CHARGES
-----------------------
   0 C :   -0.280122
   1 N :   -0.220900
   2 H :    0.147316
   3 H :    0.153926
   4 H :    0.145854
   5 H :    0.276513
   6 H :    0.258416
   7 H :    0.266160
   8 Pb:    0.345352
   9 Cl:   -0.302089
  10 Cl:   -0.538724
  11 Cl:   -0.251703
Sum of atomic charges:   -0.0000000

--------------------------------
MULLIKEN REDUCED ORBITAL CHARGES
--------------------------------
  0 C s       :     3.270655  s :     3.270655
      pz      :     0.981681  p :     2.924819
      px      :     0.995885
      py      :     0.947254
      dz2     :     0.008922  d :     0.077594
      dxz     :     0.020159
      dyz     :     0.018979
      dx2y2   :     0.010510
      dxy     :     0.019024
      f0      :     0.000461  f :     0.007054
      f+1     :     0.000649
      f-1     :     0.000855
      f+2     :     0.000963
      f-2     :     0.002653
      f+3     :     0.000667
      f-3     :     0.000806
  1 N s       :     3.423847  s :     3.423847
      pz      :     1.249173  p :     3.720079
      px      :     1.231316
      py      :     1.239590
      dz2     :     0.010864  d :     0.073558
      dxz     :     0.015522
      dyz     :     0.014006
      dx2y2   :     0.017935
      dxy     :     0.015230
      f0      :     0.000238  f :     0.003416
      f+1     :     0.000373
      f-1     :     0.000388
      f+2     :     0.000372
      f-2     :     0.001245
      f+3     :     0.000392
      f-3     :     0.000408
  2 H s       :     0.830233  s :     0.830233
      pz      :     0.008416  p :     0.022451
      px      :     0.007909
      py      :     0.006126
  3 H s       :     0.823588  s :     0.823588
      pz      :     0.007118  p :     0.022486
      px      :     0.007775
      py      :     0.007592
  4 H s       :     0.831852  s :     0.831852
      pz      :     0.006939  p :     0.022294
      px      :     0.007575
      py      :     0.007781
  5 H s       :     0.667775  s :     0.667775
      pz      :     0.011402  p :     0.055712
      px      :     0.025228
      py      :     0.019082
  6 H s       :     0.692750  s :     0.692750
      pz      :     0.011618  p :     0.048834
      px      :     0.012731
      py      :     0.024485
  7 H s       :     0.686291  s :     0.686291
      pz      :     0.014581  p :     0.047548
      px      :     0.024049
      py      :     0.008918
  8 Pbs       :     3.926906  s :     3.926906
      pz      :     2.348730  p :     7.569891
      px      :     2.458402
      py      :     2.762759
      dz2     :     2.012471  d :    10.061773
      dxz     :     2.007182
      dyz     :     2.019920
      dx2y2   :     2.010034
      dxy     :     2.012166
      f0      :     0.021459  f :     0.096078
      f+1     :     0.011767
      f-1     :     0.015797
      f+2     :     0.016761
      f-2     :     0.012536
      f+3     :     0.009006
      f-3     :     0.008753
  9 Cls       :     5.916409  s :     5.916409
      pz      :     3.759105  p :    11.155435
      px      :     3.489610
      py      :     3.906721
      dz2     :     0.031280  d :     0.217026
      dxz     :     0.066936
      dyz     :     0.022641
      dx2y2   :     0.051207
      dxy     :     0.044962
      f0      :     0.001239  f :     0.013220
      f+1     :     0.002239
      f-1     :     0.000716
      f+2     :     0.002492
      f-2     :     0.001522
      f+3     :     0.002375
      f-3     :     0.002636
 10 Cls       :     5.946183  s :     5.946183
      pz      :     3.778967  p :    11.484359
      px      :     3.889910
      py      :     3.815481
      dz2     :     0.015418  d :     0.101765
      dxz     :     0.021223
      dyz     :     0.021436
      dx2y2   :     0.023987
      dxy     :     0.019701
      f0      :     0.000753  f :     0.006418
      f+1     :     0.000779
      f-1     :     0.000694
      f+2     :     0.001068
      f-2     :     0.000833
      f+3     :     0.001288
      f-3     :     0.001004
 11 Cls       :     5.921008  s :     5.921008
      pz      :     3.624931  p :    11.112192
      px      :     3.607047
      py      :     3.880213
      dz2     :     0.041622  d :     0.205304
      dxz     :     0.051305
      dyz     :     0.022002
      dx2y2   :     0.052705
      dxy     :     0.037670
      f0      :     0.001944  f :     0.013199
      f+1     :     0.002166
      f-1     :     0.000928
      f+2     :     0.002352
      f-2     :     0.001495
      f+3     :     0.002216
      f-3     :     0.002098


                     *******************************
                     * LOEWDIN POPULATION ANALYSIS *
                     *******************************

----------------------
LOEWDIN ATOMIC CHARGES
----------------------
   0 C :   -0.311538
   1 N :   -0.030966
   2 H :    0.121854
   3 H :    0.124267
   4 H :    0.121144
   5 H :    0.121750
   6 H :    0.128263
   7 H :    0.141928
   8 Pb:   -0.273758
   9 Cl:    0.006797
  10 Cl:   -0.138682
  11 Cl:   -0.011058

-------------------------------
LOEWDIN REDUCED ORBITAL CHARGES
-------------------------------
  0 C s       :     2.855206  s :     2.855206
      pz      :     1.039856  p :     3.101372
      px      :     1.046434
      py      :     1.015082
      dz2     :     0.030768  d :     0.316378
      dxz     :     0.083119
      dyz     :     0.083218
      dx2y2   :     0.034532
      dxy     :     0.084742
      f0      :     0.005472  f :     0.038582
      f+1     :     0.004024
      f-1     :     0.005776
      f+2     :     0.004644
      f-2     :     0.007438
      f+3     :     0.005164
      f-3     :     0.006064
  1 N s       :     3.028249  s :     3.028249
      pz      :     1.227418  p :     3.761100
      px      :     1.271315
      py      :     1.262366
      dz2     :     0.029324  d :     0.228677
      dxz     :     0.052354
      dyz     :     0.048018
      dx2y2   :     0.047047
      dxy     :     0.051933
      f0      :     0.001770  f :     0.012941
      f+1     :     0.001554
      f-1     :     0.001726
      f+2     :     0.001287
      f-2     :     0.002147
      f+3     :     0.002188
      f-3     :     0.002268
  2 H s       :     0.813782  s :     0.813782
      pz      :     0.023441  p :     0.064364
      px      :     0.022272
      py      :     0.018650
  3 H s       :     0.811251  s :     0.811251
      pz      :     0.020010  p :     0.064482
      px      :     0.023346
      py      :     0.021125
  4 H s       :     0.815080  s :     0.815080
      pz      :     0.021228  p :     0.063776
      px      :     0.021200
      py      :     0.021349
  5 H s       :     0.716937  s :     0.716937
      pz      :     0.033626  p :     0.161313
      px      :     0.075603
      py      :     0.052084
  6 H s       :     0.718890  s :     0.718890
      pz      :     0.033759  p :     0.152848
      px      :     0.041375
      py      :     0.077714
  7 H s       :     0.710689  s :     0.710689
      pz      :     0.041703  p :     0.147384
      px      :     0.076957
      py      :     0.028723
  8 Pbs       :     3.716156  s :     3.716156
      pz      :     2.559568  p :     7.872239
      px      :     2.533261
      py      :     2.779411
      dz2     :     2.124479  d :    10.457778
      dxz     :     2.096578
      dyz     :     2.116477
      dx2y2   :     2.061994
      dxy     :     2.058250
      f0      :     0.060721  f :     0.227584
      f+1     :     0.026368
      f-1     :     0.034849
      f+2     :     0.043131
      f-2     :     0.027968
      f+3     :     0.019297
      f-3     :     0.015252
  9 Cls       :     5.590908  s :     5.590908
      pz      :     3.667302  p :    10.908713
      px      :     3.465830
      py      :     3.775581
      dz2     :     0.053268  d :     0.456145
      dxz     :     0.167416
      dyz     :     0.032899
      dx2y2   :     0.129134
      dxy     :     0.073428
      f0      :     0.003846  f :     0.037437
      f+1     :     0.005483
      f-1     :     0.001086
      f+2     :     0.009853
      f-2     :     0.003427
      f+3     :     0.007857
      f-3     :     0.005885
 10 Cls       :     5.699689  s :     5.699689
      pz      :     3.731938  p :    11.246835
      px      :     3.756827
      py      :     3.758070
      dz2     :     0.024881  d :     0.179770
      dxz     :     0.033391
      dyz     :     0.038102
      dx2y2   :     0.053160
      dxy     :     0.030236
      f0      :     0.001411  f :     0.012389
      f+1     :     0.001376
      f-1     :     0.001105
      f+2     :     0.002142
      f-2     :     0.001655
      f+3     :     0.002769
      f-3     :     0.001930
 11 Cls       :     5.606270  s :     5.606270
      pz      :     3.585159  p :    10.925558
      px      :     3.537789
      py      :     3.802610
      dz2     :     0.085068  d :     0.441438
      dxz     :     0.119789
      dyz     :     0.036185
      dx2y2   :     0.139121
      dxy     :     0.061275
      f0      :     0.006432  f :     0.037792
      f+1     :     0.005091
      f-1     :     0.001498
      f+2     :     0.008080
      f-2     :     0.003112
      f+3     :     0.008356
      f-3     :     0.005223


                      *****************************
                      * MAYER POPULATION ANALYSIS *
                      *****************************

  NA   - Mulliken gross atomic population
  ZA   - Total nuclear charge
  QA   - Mulliken gross atomic charge
  VA   - Mayer's total valence
  BVA  - Mayer's bonded valence
  FA   - Mayer's free valence

  ATOM       NA         ZA         QA         VA         BVA        FA
  0 C      6.2801     6.0000    -0.2801     3.9111     3.7934     0.1177
  1 N      7.2209     7.0000    -0.2209     3.3595     3.2026     0.1569
  2 H      0.8527     1.0000     0.1473     0.9741     0.9544     0.0197
  3 H      0.8461     1.0000     0.1539     0.9736     0.9542     0.0194
  4 H      0.8541     1.0000     0.1459     0.9641     0.9451     0.0190
  5 H      0.7235     1.0000     0.2765     0.9585     0.9343     0.0242
  6 H      0.7416     1.0000     0.2584     0.9578     0.9339     0.0239
  7 H      0.7338     1.0000     0.2662     0.9889     0.9639     0.0250
  8 Pb    21.6546    22.0000     0.3454     2.4670     1.9484     0.5186
  9 Cl    17.3021    17.0000    -0.3021     1.5475     1.2026     0.3449
 10 Cl    17.5387    17.0000    -0.5387     1.0154     0.7331     0.2823
 11 Cl    17.2517    17.0000    -0.2517     1.5672     1.2172     0.3500

  Mayer bond orders larger than 0.1
B(  0-C ,  1-N ) :   0.9040 B(  0-C ,  2-H ) :   0.9512 B(  0-C ,  3-H ) :   0.9485 
B(  0-C ,  4-H ) :   0.9526 B(  1-N ,  5-H ) :   0.7894 B(  1-N ,  6-H ) :   0.7851 
B(  1-N ,  7-H ) :   0.7913 B(  5-H , 11-Cl) :   0.1220 B(  6-H ,  9-Cl) :   0.1242 
B(  7-H , 10-Cl) :   0.1301 B(  8-Pb,  9-Cl) :   0.6758 B(  8-Pb, 10-Cl) :   0.5302 
B(  8-Pb, 11-Cl) :   0.6819 B(  9-Cl, 11-Cl) :   0.3842 


-------
TIMINGS
-------

Total time                :  781.817 sec
Integral trafo            :    2.749 sec (  0.4%)
I/O of integrals          :    0.123 sec (  0.0%)
K(i,j) Operators          :    6.026 sec (  0.8%)
T(i,j) pair energies      :    1.144 sec (  0.1%)
V-calculation             :    0.013 sec (  0.0%)
V**(-1/2)                 :    0.028 sec (  0.0%)
Gamma(ia|P)               :    5.405 sec (  0.7%)
Gamma-Trafo               :    0.768 sec (  0.1%)
D(virtual)                :    2.401 sec (  0.3%)
D(internal)               :    4.033 sec (  0.5%)
W(virtual)                :    4.840 sec (  0.6%)
W(internal)               :   13.498 sec (  1.7%)
L(virtual)                :    6.276 sec (  0.8%)
L(internal)               :    0.223 sec (  0.0%)
G(D)                      :   15.916 sec (  2.0%)
G(Z)                      :   15.556 sec (  2.0%)
Z-Vector Solution         :  583.447 sec ( 74.6%)
Z-Vector Solution         :  583.447 sec ( 74.6%)
3-Index Derivative 
+ Separable RIJ part      :    4.331 sec (  0.6%)
2-Index Derivative 
+ Separable RIJ part      :    0.026 sec (  0.0%)
Separable Gradient (COSX) :  113.365 sec ( 14.5%)


---------------------------------------
MP2 TOTAL ENERGY:    -1669.166436051 Eh
---------------------------------------

The final MP2 gradient
  0:  -0.00125720   0.00239199   0.00261995
  1:  -0.07729180  -0.05756190   0.00813003
  2:   0.00165789  -0.00177144   0.00224560
  3:  -0.00138721   0.00246640   0.00221377
  4:   0.00198926   0.00175592  -0.00320438
  5:  -0.01894313  -0.02509154  -0.00113490
  6:  -0.01212896  -0.02046251  -0.01496675
  7:  -0.01616640  -0.00650828  -0.01705903
  8:   0.03078222   0.00178797   0.07585762
  9:  -0.26509537   0.07685657   0.08731457
 10:   0.15265164  -0.05566726   0.02769070
 11:   0.20483820   0.08189847  -0.16986412

-----------------------------------
NORM OF THE MP2 GRADIENT:  0.454953
-----------------------------------

Entering the calculation of the dispersion correction...

Checking the input atom types...

Done


-------------------------------------------------------------------------------
                          DFT DISPERSION CORRECTION                            
                                                                               
                                DFTD3 V2.1  Rev 6                               
                          USING Becke-Johnson damping                          
-------------------------------------------------------------------------------
The B2PLYP functional is recognized
Active option DFTDOPT                   ...         4   

molecular C6(AA) [au] = 4858.390025 


            DFT-D V3
 parameters
 s6 scaling factor         :     0.6400 
 a1 scaling factor         :     0.3065 
 s8 scaling factor         :     0.9147 
 a2 scaling factor         :     5.0570 
 ad hoc parameters k1-k3   :    16.0000     1.3333    -4.0000 

 Edisp/kcal,au: -10.534836870184  -0.016788329391 
 E6   /kcal   :  -4.829310333 
 E8   /kcal   :  -5.705526537 
 % E8         :  54.158660519 

-------------------------   ----------------
Dispersion correction           -0.016788329
-------------------------   ----------------


-------------------------   --------------------
FINAL SINGLE POINT ENERGY     -1669.183224380430
-------------------------   --------------------


                            ***************************************
                            *     ORCA property calculations      *
                            ***************************************


  WARNING: The energy has been calculated at the MP2 level but the densities
           used in the property calculations are still SCF densities
           MP2 response densities have not been calculated 
           use %mp2 Density relaxed end
           or  %mp2 Density unrelaxed end

                                    ---------------------
                                    Active property flags
                                    ---------------------
   (+) Dipole Moment


------------------------------------------------------------------------------
                       ORCA ELECTRIC PROPERTIES CALCULATION
------------------------------------------------------------------------------

Dipole Moment Calculation                       ... on
Quadrupole Moment Calculation                   ... off
Polarizability Calculation                      ... off
GBWName                                         ... PbMACl3_mp2_md2_12.orca.gbw
Electron density file                           ... PbMACl3_mp2_md2_12.orca.scfp.tmp

-------------
DIPOLE MOMENT
-------------
                                X             Y             Z
Electronic contribution:    -54.57954     -65.32328    -125.03392
Nuclear contribution   :     56.10404      66.62036     124.59930
                        -----------------------------------------
Total Dipole Moment    :      1.52450       1.29708      -0.43462
                        -----------------------------------------
Magnitude (a.u.)       :      2.04827
Magnitude (Debye)      :      5.20629


                         *** MP2 UNRELAXED DENSITY ***

------------------------------------------------------------------------------
                       ORCA ELECTRIC PROPERTIES CALCULATION
------------------------------------------------------------------------------

Dipole Moment Calculation                       ... on
Quadrupole Moment Calculation                   ... off
Polarizability Calculation                      ... off
GBWName                                         ... PbMACl3_mp2_md2_12.orca.gbw
Electron density file                           ... PbMACl3_mp2_md2_12.orca.pmp2ur

-------------
DIPOLE MOMENT
-------------
                                X             Y             Z
Electronic contribution:    -54.56079     -65.33339    -124.95739
Nuclear contribution   :     56.10404      66.62036     124.59930
                        -----------------------------------------
Total Dipole Moment    :      1.54325       1.28697      -0.35809
                        -----------------------------------------
Magnitude (a.u.)       :      2.04111
Magnitude (Debye)      :      5.18810


                           *** MP2 RELAXED DENSITY ***

------------------------------------------------------------------------------
                       ORCA ELECTRIC PROPERTIES CALCULATION
------------------------------------------------------------------------------

Dipole Moment Calculation                       ... on
Quadrupole Moment Calculation                   ... off
Polarizability Calculation                      ... off
GBWName                                         ... PbMACl3_mp2_md2_12.orca.gbw
Electron density file                           ... PbMACl3_mp2_md2_12.orca.pmp2re

-------------
DIPOLE MOMENT
-------------
                                X             Y             Z
Electronic contribution:    -54.58645     -65.36989    -124.92979
Nuclear contribution   :     56.10404      66.62036     124.59930
                        -----------------------------------------
Total Dipole Moment    :      1.51760       1.25047      -0.33049
                        -----------------------------------------
Magnitude (a.u.)       :      1.99399
Magnitude (Debye)      :      5.06833


Timings for individual modules:

Sum of individual times         ...     1454.442 sec (=  24.241 min)
GTO integral calculation        ...        0.594 sec (=   0.010 min)   0.0 %
SCF iterations                  ...      671.866 sec (=  11.198 min)  46.2 %
MP2 module                      ...      781.981 sec (=  13.033 min)  53.8 %
                             ****ORCA TERMINATED NORMALLY****
TOTAL RUN TIME: 0 days 0 hours 24 minutes 14 seconds 970 msec
