
                                 *****************
                                 * O   R   C   A *
                                 *****************

           --- An Ab Initio, DFT and Semiempirical electronic structure package ---

                  #######################################################
                  #                        -***-                        #
                  #  Department of molecular theory and spectroscopy    #
                  #              Directorship: Frank Neese              #
                  # Max Planck Institute for Chemical Energy Conversion #
                  #                  D-45470 Muelheim/Ruhr              #
                  #                       Germany                       #
                  #                                                     #
                  #                  All rights reserved                #
                  #                        -***-                        #
                  #######################################################


                         Program Version 3.0.3 - RELEASE   -


 With contributions from (in alphabetic order):
   Ute Becker             : Parallelization
   Dmytro Bykov           : SCF Hessian
   Dmitry Ganyushin       : Spin-Orbit,Spin-Spin,Magnetic field MRCI
   Andreas Hansen         : Spin unrestricted coupled pair/coupled cluster methods
   Dimitrios Liakos       : Extrapolation schemes; parallel MDCI
   Robert Izsak           : Overlap fitted RIJCOSX, COSX-SCS-MP3
   Christian Kollmar      : KDIIS, OOCD, Brueckner-CCSD(T), CCSD density
   Simone Kossmann        : Meta GGA functionals, TD-DFT gradient, OOMP2, MP2 Hessian
   Taras Petrenko         : DFT Hessian,TD-DFT gradient, ASA and ECA modules, normal mode analysis, Resonance Raman, ABS, FL, XAS/XES, NRVS
   Christoph Reimann      : Effective Core Potentials
   Michael Roemelt        : Restricted open shell CIS
   Christoph Riplinger    : Improved optimizer, TS searches, QM/MM, DLPNO-CCSD
   Barbara Sandhoefer     : DKH picture change effects
   Igor Schapiro          : Molecular dynamics
   Kantharuban Sivalingam : CASSCF convergence, NEVPT2
   Boris Wezisla          : Elementary symmetry handling
   Frank Wennmohs         : Technical directorship


 We gratefully acknowledge several colleagues who have allowed us to
 interface, adapt or use parts of their codes:
   Stefan Grimme, W. Hujo, H. Kruse, T. Risthaus : VdW corrections, initial TS optimization,
                                                   DFT functionals, gCP
   Ed Valeev                                     : LibInt (2-el integral package), F12 methods
   Garnet Chan, S. Sharma, R. Olivares           : DMRG
   Ulf Ekstrom                                   : XCFun DFT Library
   Mihaly Kallay                                 : mrcc  (arbitrary order and MRCC methods)
   Andreas Klamt, Michael Diedenhofen            : otool_cosmo (COSMO solvation model)
   Frank Weinhold                                : gennbo (NPA and NBO analysis)
   Christopher J. Cramer and Donald G. Truhlar   : smd solvation model


 Your calculation uses the libint2 library for the computation of 2-el integrals
 For citations please refer to: http://libint.valeyev.net

 This ORCA versions uses:
   CBLAS   interface :  Fast vector & matrix operations
   LAPACKE interface :  Fast linear algebra routines
   SCALAPACK package :  Parallel linear algebra routines


Your calculation utilizes the basis: Ahlrichs-TZV
Cite in your paper:
H - Kr: A. Schaefer, H. Horn and R. Ahlrichs, J. Chem. Phys. 97, 2571 (1992).

The def2-TZV basis will be loaded
Cite in your paper:
 	F. Weigend, R. Ahlrichs, Phys. Chem. Chem. Phys. 2005, 7, 3297.

Your calculation utilizes the atom-pairwise dispersion correction
with the Becke-Johnson damping scheme (D3BJ)
Cite in your paper:
S.Grimme, S.Ehrlich, L.Goerigk, J Comput Chem, (2011), 32, 1456–1465 
S.Grimme, J.Antony, S.Ehrlich and H.Krieg, J.Chem.Phys., 132, (2010), 154104 
   

================================================================================
                                        WARNINGS
                       Please study these warnings very carefully!
================================================================================

WARNING: The RI method has been chosen with no auxiliary basis (AUX or GTOAUX in BASIS block)
        Standard TZV/J expansion basis used (GTOAUX=TZV_J)

Now building the actual basis set
cite the ECPs for Pb [SD(60,MDF)] as follows:
  B. Metz, H. Stoll, M. Dolg, J. Chem. Phys. 113, 2563 (2000).

ECP parameters for Pb [SD(60,MDF)] have been obtained from:
  pseudopotential library of the Stuttgart/Cologne group
  http://www.theochem.uni-stuttgart.de/pseudopotentials/

cite the ECP basis sets for Pb [DEF2-TZVP] as follows:
  F. Weigend, R. Ahlrichs; Phys. Chem. Chem. Phys. 7, 3297(2005).

ECP basis sets for Pb [DEF2-TZVP] have been obtained from:
  Turbomole basis set library
  ftp://ftp.chemie.uni-karlsruhe.de/pub/basen/



INFO   : the flag for use of LIBINT has been found!

================================================================================
                                       INPUT FILE
================================================================================
NAME = PbMACl3_mp2_md2_22.orca
|  1> ! RIJCOSX RI-B2PLYP D3BJ def2-TZVP ECP{def2-TZVP} TIGHTSCF Grid5 FinalGrid6 SlowConv MORead
|  2> %method
|  3>  RunTyp Gradient
|  4>  end
|  5> %maxcore 1000
|  6> %moinp "previous.gbw"
|  7> *xyz 0 1
|  8> C -0.394281 0.276013 -0.426662 
|  9> N -1.165380 -0.685592 -1.253010 
| 10> H 0.248796 -0.278576 0.260517 
| 11> H -1.090820 0.897444 0.140826 
| 12> H 0.215705 0.904875 -1.079130 
| 13> H -1.783150 -1.324970 -0.698370 
| 14> H -0.582260 -1.326300 -1.835140 
| 15> H -1.813140 -0.240924 -1.938260 
| 16> Pb -2.525830 -2.689980 -3.007730 
| 17> Cl -0.036539 -2.858990 -2.996170 
| 18> Cl -3.138470 -0.283192 -3.427290 
| 19> Cl -3.076010 -3.046960 -0.587720 
| 20> *
| 21> 
| 22>                          ****END OF INPUT****
================================================================================

                     *******************************
                     * Energy+Gradient Calculation *
                     *******************************

---------------------------------
CARTESIAN COORDINATES (ANGSTROEM)
---------------------------------
  C     -0.394281    0.276013   -0.426662
  N     -1.165380   -0.685592   -1.253010
  H      0.248796   -0.278576    0.260517
  H     -1.090820    0.897444    0.140826
  H      0.215705    0.904875   -1.079130
  H     -1.783150   -1.324970   -0.698370
  H     -0.582260   -1.326300   -1.835140
  H     -1.813140   -0.240924   -1.938260
  Pb    -2.525830   -2.689980   -3.007730
  Cl    -0.036539   -2.858990   -2.996170
  Cl    -3.138470   -0.283192   -3.427290
  Cl    -3.076010   -3.046960   -0.587720

----------------------------
CARTESIAN COORDINATES (A.U.)
----------------------------
  NO LB      ZA    FRAG    MASS        X           Y           Z
   0 C     6.0000    0    12.011         -0.745083109808605          0.521588979402006         -0.806274331751109
   1 N     7.0000    0    14.007         -2.202249041949148         -1.295581119607339         -2.367845743064668
   2 H     1.0000    0     1.008          0.470156303215072         -0.526432347483247          0.492305783230763
   3 H     1.0000    0     1.008         -2.061351061403979          1.695923380530824          0.266122572535594
   4 H     1.0000    0     1.008          0.407623375717484          1.709965935431992         -2.039260162898440
   5 H     1.0000    0     1.008         -3.369665155701680         -2.503830435661641         -1.319728040146585
   6 H     1.0000    0     1.008         -1.100311938736988         -2.506343771419756         -3.467912017404246
   7 H     1.0000    0     1.008         -3.426338042457978         -0.455280379088844         -3.662780576334205
   8 Pb   22.0000*   0   207.200  -4.773126960842315  -5.083325505725488  -5.683785984778966
   9 Cl   17.0000    0    35.453         -0.069048703207349         -5.402708119619519         -5.661940750670837
  10 Cl   17.0000    0    35.453         -5.930848779527831         -0.535155323317427         -6.476639481526967
  11 Cl   17.0000    0    35.453         -5.812816485203109         -5.757919941012696         -1.110629843428198
* core charge reduced due to ECP

--------------------------------
INTERNAL COORDINATES (ANGSTROEM)
--------------------------------
 C      0   0   0   0.000000     0.000     0.000
 N      1   0   0   1.483957     0.000     0.000
 H      1   2   0   1.092397   109.099     0.000
 H      1   2   3   1.092422   109.061   240.173
 H      1   2   3   1.092367   109.305   120.114
 H      2   1   3   1.047888   114.015    60.210
 H      2   1   3   1.043749   114.711   299.789
 H      2   1   3   1.042540   114.361   179.708
 Pb     7   2   1   2.648028    98.803   180.413
 Cl     7   2   1   1.998735   161.304   165.976
 Cl     8   2   1   1.993865   153.486   176.460
 Cl     6   2   1   2.156149   150.222   189.616

---------------------------
INTERNAL COORDINATES (A.U.)
---------------------------
 C      0   0   0   0.000000     0.000     0.000
 N      1   0   0   2.804273     0.000     0.000
 H      1   2   0   2.064332   109.099     0.000
 H      1   2   3   2.064378   109.061   240.173
 H      1   2   3   2.064274   109.305   120.114
 H      2   1   3   1.980222   114.015    60.210
 H      2   1   3   1.972399   114.711   299.789
 H      2   1   3   1.970116   114.361   179.708
 Pb     7   2   1   5.004049    98.803   180.413
 Cl     7   2   1   3.777061   161.304   165.976
 Cl     8   2   1   3.767858   153.486   176.460
 Cl     6   2   1   4.074532   150.222   189.616

---------------------
BASIS SET INFORMATION
---------------------
There are 5 groups of distinct atoms

 Group   1 Type C   : 11s6p2d1f contracted to 5s3p2d1f pattern {62111/411/11/1}
 Group   2 Type N   : 11s6p2d1f contracted to 5s3p2d1f pattern {62111/411/11/1}
 Group   3 Type H   : 5s1p contracted to 3s1p pattern {311/1}
 Group   4 Type Pb  : 10s9p8d2f contracted to 6s5p3d2f pattern {421111/33111/611/11}
 Group   5 Type Cl  : 14s9p3d1f contracted to 5s5p2d1f pattern {73211/51111/21/1}

Atom   0C    basis set group =>   1
Atom   1N    basis set group =>   2
Atom   2H    basis set group =>   3
Atom   3H    basis set group =>   3
Atom   4H    basis set group =>   3
Atom   5H    basis set group =>   3
Atom   6H    basis set group =>   3
Atom   7H    basis set group =>   3
Atom   8Pb   basis set group =>   4
Atom   9Cl   basis set group =>   5
Atom  10Cl   basis set group =>   5
Atom  11Cl   basis set group =>   5
-------------------------------
AUXILIARY BASIS SET INFORMATION
-------------------------------
There are 5 groups of distinct atoms

 Group   1 Type C   : 12s5p4d2f1g contracted to 6s4p3d1f1g pattern {711111/2111/211/2/1}
 Group   2 Type N   : 12s5p4d2f1g contracted to 6s4p3d1f1g pattern {711111/2111/211/2/1}
 Group   3 Type H   : 5s2p1d contracted to 3s1p1d pattern {311/2/1}
 Group   4 Type Pb  : 31s12p8d6f3g contracted to 31s12p8d6f3g pattern {1111111111111111111111111111111/111111111111/11111111/111111/111}
 Group   5 Type Cl  : 14s5p5d2f1g contracted to 8s4p3d1f1g pattern {71111111/2111/311/2/1}

Atom   0C    basis set group =>   1
Atom   1N    basis set group =>   2
Atom   2H    basis set group =>   3
Atom   3H    basis set group =>   3
Atom   4H    basis set group =>   3
Atom   5H    basis set group =>   3
Atom   6H    basis set group =>   3
Atom   7H    basis set group =>   3
Atom   8Pb   basis set group =>   4
Atom   9Cl   basis set group =>   5
Atom  10Cl   basis set group =>   5
Atom  11Cl   basis set group =>   5

-------------------------
ECP PARAMETER INFORMATION
-------------------------

 Group 1, Type Pb ECP SD(60,MDF) (replacing 60 core electrons, lmax=5)

Atom   8Pb   ECP group =>   1


------------------------------------------------------------------------------
                           ORCA GTO INTEGRAL CALCULATION
                           -- RI-GTO INTEGRALS CHOSEN --
------------------------------------------------------------------------------

                         BASIS SET STATISTICS AND STARTUP INFO

Gaussian basis set:
 # of primitive gaussian shells          ...  186
 # of primitive gaussian functions       ...  420
 # of contracted shells                  ...  101
 # of contracted basis functions         ...  259
 Highest angular momentum                ...    3
 Maximum contraction depth               ...    7
Auxiliary gaussian basis set:
 # of primitive gaussian shells          ...  237
 # of primitive gaussian functions       ...  643
 # of contracted shells                  ...  171
 # of contracted aux-basis functions     ...  493
 Highest angular momentum                ...    4
 Maximum contraction depth               ...    7
Ratio of auxiliary to basis functions    ...  1.90
Integral package used                  ... LIBINT
 One Electron integrals                  
   ECP integrals                         ... done
 Ordering auxiliary basis shells         ... done
 Integral threshhold             Thresh  ...  2.500e-11
 Primitive cut-off               TCut    ...  2.500e-12
 Pre-screening matrix                    ... done
 Shell pair data                         ... 
 Ordering of the shell pairs             ... done (   0.001 sec) 4490 of 5151 pairs
 Determination of significant pairs      ... done (   0.000 sec)
 Creation of shell pair data             ... done (   0.002 sec)
 Storage of shell pair data              ... done (   0.001 sec)
 Shell pair data done in (   0.004 sec)
 Computing two index integrals           ... done
 Cholesky decomposition of the V-matrix  ... done


Timings:
 Total evaluation time                   ...   1.133 sec (  0.019 min)
 One electron matrix time                ...   0.636 sec (  0.011 min) = 56.1%
 Schwartz matrix evaluation time         ...   0.364 sec (  0.006 min) = 32.1%
 Two index repulsion integral time       ...   0.011 sec (  0.000 min) =  1.0%
 Cholesky decomposition of V             ...   0.067 sec (  0.001 min) =  5.9%
 Three index repulsion integral time     ...   0.000 sec (  0.000 min) =  0.0%

-------------------------------------------------------------------------------
                                 ORCA SCF
-------------------------------------------------------------------------------

------------
SCF SETTINGS
------------
Hamiltonian:
 Density Functional     Method          .... DFT(GTOs)
 Exchange Functional    Exchange        .... B88
   X-Alpha parameter    XAlpha          ....  0.666667
   Becke's b parameter  XBeta           ....  0.004200
 Correlation Functional Correlation     .... LYP
 LDA part of GGA corr.  LDAOpt          .... VWN-3
 Gradients option       PostSCFGGA      .... off
 Hybrid DFT is turned on
   Fraction HF Exchange ScalHFX         ....  0.530000
   Scaling of DF-GGA-X  ScalDFX         ....  0.470000
   Scaling of DF-GGA-C  ScalDFC         ....  0.730000
   Scaling of DF-LDA-C  ScalLDAC        ....  0.730000
   Perturbative correction              ....  0.270000
 RI-approximation to the Coulomb term is turned on
   Number of auxiliary basis functions  .... 493
   RIJ-COSX (HFX calculated with COS-X)).... on


General Settings:
 Integral files         IntName         .... PbMACl3_mp2_md2_22.orca
 Hartree-Fock type      HFTyp           .... RHF
 Total Charge           Charge          ....    0
 Multiplicity           Mult            ....    1
 Number of Electrons    NEL             ....   92
 Basis Dimension        Dim             ....  259
 Nuclear Repulsion      ENuc            ....    612.0070148415 Eh

Convergence Acceleration:
 DIIS                   CNVDIIS         .... on
   Start iteration      DIISMaxIt       ....     0
   Startup error        DIISStart       ....  0.200000
   # of expansion vecs  DIISMaxEq       ....     5
   Bias factor          DIISBfac        ....   1.050
   Max. coefficient     DIISMaxC        ....  10.000
 Newton-Raphson         CNVNR           .... off
 SOSCF                  CNVSOSCF        .... on
   Start iteration      SOSCFMaxIt      ....   150
   Startup grad/error   SOSCFStart      ....  0.001000
 Level Shifting         CNVShift        .... on
   Level shift para.    LevelShift      ....    0.2500
   Turn off err/grad.   ShiftErr        ....    0.0000
 Zerner damping         CNVZerner       .... off
 Static damping         CNVDamp         .... on
   Fraction old density DampFac         ....    0.8500
   Max. Damping (<1)    DampMax         ....    0.9800
   Min. Damping (>=0)   DampMin         ....    0.0000
   Turn off err/grad.   DampErr         ....    0.0300
 Fernandez-Rico         CNVRico         .... off

SCF Procedure:
 Maximum # iterations   MaxIter         ....   125
 SCF integral mode      SCFMode         .... Direct
   Integral package                     .... LIBINT
 Reset frequeny         DirectResetFreq ....    20
 Integral Threshold     Thresh          ....  2.500e-11 Eh
 Primitive CutOff       TCut            ....  2.500e-12 Eh

Convergence Tolerance:
 Convergence Check Mode ConvCheckMode   .... Total+1el-Energy
 Energy Change          TolE            ....  1.000e-08 Eh
 1-El. energy change                    ....  1.000e-05 Eh
 Orbital Gradient       TolG            ....  1.000e-05
 Orbital Rotation angle TolX            ....  1.000e-05
 DIIS Error             TolErr          ....  5.000e-07


Diagonalization of the overlap matrix:
Smallest eigenvalue                        ... 1.053e-03
Time for diagonalization                   ...    0.098 sec
Threshold for overlap eigenvalues          ... 1.000e-08
Number of eigenvalues below threshold      ... 0
Time for construction of square roots      ...    0.014 sec
Total time needed                          ...    0.112 sec

---------------------
INITIAL GUESS: MOREAD
---------------------
Guess MOs are being read from file: previous.gbw
Input geometry compatible with but different from current geometry
Input basis set matches current basis set (good)
MOs were renormalized
MOs were reorthogonalized (Schmidt)
                      ------------------
                      INITIAL GUESS DONE (   0.3 sec)
                      ------------------
-------------------
DFT GRID GENERATION
-------------------

General Integration Accuracy     IntAcc      ...  5.010
Radial Grid Type                 RadialGrid  ... Gauss-Chebyshev
Angular Grid (max. acc.)         AngularGrid ... Lebedev-434
Angular grid pruning method      GridPruning ... 3 (G Style)
Weight generation scheme         WeightScheme... Becke
Basis function cutoff            BFCut       ...    1.0000e-11
Integration weight cutoff        WCut        ...    1.0000e-14
Grids for H and He will be reduced by one unit

# of grid points (after initial pruning)     ... 115882 (   0.1 sec)
# of grid points (after weights+screening)   ... 108522 (   0.4 sec)
nearest neighbour list constructed           ...    0.0 sec
Grid point re-assignment to atoms done       ...    0.0 sec
Grid point division into batches done        ...    1.0 sec
Reduced shell lists constructed in    2.5 sec

Total number of grid points                  ...   108522
Total number of batches                      ...     1702
Average number of points per batch           ...       63
Average number of grid points per atom       ...     9044
Average number of shells per batch           ...    56.19 (55.63%)
Average number of basis functions per batch  ...   148.85 (57.47%)
Average number of large shells per batch     ...    42.65 (75.90%)
Average number of large basis fcns per batch ...   109.95 (73.87%)
Maximum spatial batch extension              ...  33.08, 33.52, 35.48 au
Average spatial batch extension              ...   2.41,  2.37,  2.40 au

Time for grid setup =    2.893 sec

--------------------
COSX GRID GENERATION
--------------------

General Integration Accuracy     IntAcc      ...  3.340
Radial Grid Type                 RadialGrid  ... Gauss-Chebyshev
Angular Grid (max. acc.)         AngularGrid ... Lebedev-50
Angular grid pruning method      GridPruning ... 3 (G Style)
Weight generation scheme         WeightScheme... Becke
Basis function cutoff            BFCut       ...    1.0000e-11
Integration weight cutoff        WCut        ...    1.0000e-14
Grids for H and He will be reduced by one unit

# of grid points (after initial pruning)     ...   6578 (   0.0 sec)
# of grid points (after weights+screening)   ...   6170 (   0.0 sec)
nearest neighbour list constructed           ...    0.0 sec
Grid point re-assignment to atoms done       ...    0.0 sec
Grid point division into batches done        ...    0.0 sec
Reduced shell lists constructed in    0.1 sec

Total number of grid points                  ...     6170
Total number of batches                      ...      104
Average number of points per batch           ...       59
Average number of grid points per atom       ...      514
Average number of shells per batch           ...    67.59 (66.92%)
Average number of basis functions per batch  ...   181.42 (70.05%)
Average number of large shells per batch     ...    53.21 (78.72%)
Average number of large basis fcns per batch ...   139.48 (76.88%)
Maximum spatial batch extension              ...  30.11, 30.39, 30.75 au
Average spatial batch extension              ...   5.92,  6.13,  6.04 au

Overlap Fitting                  UseSFitting ... on
Constructing numerical overlap ... done (      0.1 sec)
Inverting numerical overlap    ... done (      0.0 sec)
Obtaining analytic overlap     ... done (      0.0 sec)
Final contraction and storage  ... done (      0.0 sec)


General Integration Accuracy     IntAcc      ...  3.670
Radial Grid Type                 RadialGrid  ... Gauss-Chebyshev
Angular Grid (max. acc.)         AngularGrid ... Lebedev-50
Angular grid pruning method      GridPruning ... 3 (G Style)
Weight generation scheme         WeightScheme... Becke
Basis function cutoff            BFCut       ...    1.0000e-11
Integration weight cutoff        WCut        ...    1.0000e-14
Grids for H and He will be reduced by one unit

# of grid points (after initial pruning)     ...   8124 (   0.0 sec)
# of grid points (after weights+screening)   ...   7605 (   0.0 sec)
nearest neighbour list constructed           ...    0.0 sec
Grid point re-assignment to atoms done       ...    0.0 sec
Grid point division into batches done        ...    0.0 sec
Reduced shell lists constructed in    0.1 sec

Total number of grid points                  ...     7605
Total number of batches                      ...      123
Average number of points per batch           ...       61
Average number of grid points per atom       ...      634
Average number of shells per batch           ...    67.19 (66.53%)
Average number of basis functions per batch  ...   180.35 (69.64%)
Average number of large shells per batch     ...    52.76 (78.52%)
Average number of large basis fcns per batch ...   137.73 (76.36%)
Maximum spatial batch extension              ...  31.05, 31.05, 32.09 au
Average spatial batch extension              ...   5.73,  5.77,  5.96 au

Overlap Fitting                  UseSFitting ... on
Constructing numerical overlap ... done (      0.1 sec)
Inverting numerical overlap    ... done (      0.0 sec)
Obtaining analytic overlap     ... done (      0.0 sec)
Final contraction and storage  ... done (      0.0 sec)


General Integration Accuracy     IntAcc      ...  4.010
Radial Grid Type                 RadialGrid  ... Gauss-Chebyshev
Angular Grid (max. acc.)         AngularGrid ... Lebedev-110
Angular grid pruning method      GridPruning ... 3 (G Style)
Weight generation scheme         WeightScheme... Becke
Basis function cutoff            BFCut       ...    1.0000e-11
Integration weight cutoff        WCut        ...    1.0000e-14
Grids for H and He will be reduced by one unit

# of grid points (after initial pruning)     ...  15170 (   0.0 sec)
# of grid points (after weights+screening)   ...  14334 (   0.0 sec)
nearest neighbour list constructed           ...    0.0 sec
Grid point re-assignment to atoms done       ...    0.0 sec
Grid point division into batches done        ...    0.0 sec
Reduced shell lists constructed in    0.2 sec

Total number of grid points                  ...    14334
Total number of batches                      ...      229
Average number of points per batch           ...       62
Average number of grid points per atom       ...     1194
Average number of shells per batch           ...    63.69 (63.06%)
Average number of basis functions per batch  ...   170.74 (65.92%)
Average number of large shells per batch     ...    49.33 (77.46%)
Average number of large basis fcns per batch ...   128.84 (75.46%)
Maximum spatial batch extension              ...  29.08, 30.29, 34.29 au
Average spatial batch extension              ...   4.98,  4.82,  4.86 au

Overlap Fitting                  UseSFitting ... on
Constructing numerical overlap ... done (      0.2 sec)
Inverting numerical overlap    ... done (      0.0 sec)
Obtaining analytic overlap     ... done (      0.0 sec)
Final contraction and storage  ... done (      0.0 sec)

Time for X-Grid setup             =    1.003 sec
--------------
SCF ITERATIONS
--------------
ITER       Energy         Delta-E        Max-DP      RMS-DP      [F,P]     Damp
               ***  Starting incremental Fock matrix formation  ***
  0  -1668.9846961824   0.000000000000 0.00619975  0.00015796  0.3147956 0.8500
  1  -1668.9893115050  -0.004615322600 0.00799982  0.00017644  0.2678409 0.8500
                               ***Turning on DIIS***
  2  -1668.9933033832  -0.003991878242 0.00822910  0.00016391  0.2277551 0.8500
  3  -1668.9966416520  -0.003338268777 0.00869554  0.00015056  0.1936665 0.8500
  4  -1668.9994880619  -0.002846409885 0.00875964  0.00014133  0.1646608 0.8500
  5  -1669.0019133941  -0.002425332259 0.00829158  0.00012888  0.1399807 0.8500
  6  -1669.0040212022  -0.002107808049 0.00724326  0.00011466  0.1189917 0.8500
  7  -1669.0058617418  -0.001840539621 0.00617892  0.00010042  0.1011468 0.8500
  8  -1669.0074685575  -0.001606815679 0.00535797  0.00008752  0.0859780 0.8500
  9  -1669.0088601891  -0.001391631563 0.00466347  0.00007595  0.0730841 0.8500
 10  -1669.0100619134  -0.001201724310 0.00404276  0.00006565  0.0621240 0.8500
 11  -1669.0110989225  -0.001037009110 0.00347821  0.00005655  0.0528076 0.8500
 12  -1669.0119930877  -0.000894165180 0.00297645  0.00004860  0.0448884 0.8500
 13  -1669.0127629613  -0.000769873634 0.00254747  0.00004172  0.0381567 0.8500
 14  -1669.0134245889  -0.000661627641 0.00218289  0.00003579  0.0324346 0.8500
 15  -1669.0139923071  -0.000567718164 0.01247512  0.00020459  0.0275706 0.0000
                      *** Initiating the SOSCF procedure ***
                           *** Shutting down DIIS ***
                      *** Re-Reading the Fockian *** 
                      *** Removing any level shift *** 
ITER      Energy       Delta-E        Grad      Rot      Max-DP    RMS-DP
 16  -1669.01731080  -0.0033184952  0.000106  0.000106  0.000383  0.000005
               *** Restarting incremental Fock matrix formation ***
 17  -1669.01730489   0.0000059136  0.000068  0.000215  0.000150  0.000004
 18  -1669.01730509  -0.0000001969  0.000026  0.000105  0.000133  0.000003
 19  -1669.01730516  -0.0000000711  0.000022  0.000028  0.000073  0.000001
                  ***Gradient check signals convergence***
              ***Rediagonalizing the Fockian in SOSCF/NRSCF***

               *****************************************************
               *                     SUCCESS                       *
               *           SCF CONVERGED AFTER  20 CYCLES          *
               *****************************************************

Old exchange energy                            =    -59.229796049 Eh
New exchange energy                            =    -59.233815015 Eh
Exchange energy change after final integration =     -0.004018966 Eh
Total energy after final integration           =  -1669.021324140 Eh
Final COS-X integration done in                =    25.510 sec

----------------
TOTAL SCF ENERGY
----------------

Total Energy       :        -1669.02132414 Eh          -45416.37915 eV

Components:
Nuclear Repulsion  :          612.00701484 Eh           16653.55752 eV
Electronic Energy  :        -2281.02833898 Eh          -62069.93668 eV

One Electron Energy:        -3594.08158968 Eh          -97799.93211 eV
Two Electron Energy:         1313.05325070 Eh           35729.99543 eV

Virial components:
Potential Energy   :        -3206.97026080 Eh          -87266.09732 eV
Kinetic Energy     :         1537.94893666 Eh           41849.71817 eV
Virial Ratio       :            2.08522545


DFT components:
N(Alpha)           :       46.000022176098 electrons
N(Beta)            :       46.000022176098 electrons
N(Total)           :       92.000044352196 electrons
E(X)               :      -52.601930631834 Eh       
E(C)               :       -2.613176925074 Eh       
E(XC)              :      -55.215107556907 Eh       

---------------
SCF CONVERGENCE
---------------

  Last Energy change         ...   -1.7316e-08  Tolerance :   1.0000e-08
  Last MAX-Density change    ...    1.2301e-13  Tolerance :   1.0000e-07
  Last RMS-Density change    ...    8.3880e-16  Tolerance :   5.0000e-09
  Last Orbital Gradient      ...    9.0463e-07  Tolerance :   1.0000e-05
  Last Orbital Rotation      ...    1.4804e-06  Tolerance :   1.0000e-05

             **** THE GBW FILE WAS UPDATED (PbMACl3_mp2_md2_22.orca.gbw) ****
             **** DENSITY FILE WAS UPDATED (PbMACl3_mp2_md2_22.orca.scfp.tmp) ****
             **** ENERGY FILE WAS UPDATED (PbMACl3_mp2_md2_22.orca.en.tmp) ****
----------------
ORBITAL ENERGIES
----------------

  NO   OCC          E(Eh)            E(eV) 
   0   2.0000    -102.868017     -2799.1811 
   1   2.0000    -102.865398     -2799.1098 
   2   2.0000    -102.862533     -2799.0318 
   3   2.0000     -14.956115      -406.9766 
   4   2.0000     -10.709283      -291.4144 
   5   2.0000      -9.876443      -268.7517 
   6   2.0000      -9.873811      -268.6801 
   7   2.0000      -9.870444      -268.5884 
   8   2.0000      -7.513369      -204.4492 
   9   2.0000      -7.511862      -204.4081 
  10   2.0000      -7.511324      -204.3935 
  11   2.0000      -7.510689      -204.3762 
  12   2.0000      -7.509231      -204.3366 
  13   2.0000      -7.508739      -204.3232 
  14   2.0000      -7.507466      -204.2885 
  15   2.0000      -7.505816      -204.2436 
  16   2.0000      -7.505373      -204.2316 
  17   2.0000      -5.799811      -157.8209 
  18   2.0000      -3.571826       -97.1943 
  19   2.0000      -3.569893       -97.1417 
  20   2.0000      -3.569712       -97.1368 
  21   2.0000      -1.143628       -31.1197 
  22   2.0000      -0.977422       -26.5970 
  23   2.0000      -0.975706       -26.5503 
  24   2.0000      -0.964482       -26.2449 
  25   2.0000      -0.960290       -26.1308 
  26   2.0000      -0.959274       -26.1032 
  27   2.0000      -0.908256       -24.7149 
  28   2.0000      -0.881299       -23.9814 
  29   2.0000      -0.874867       -23.8063 
  30   2.0000      -0.857605       -23.3366 
  31   2.0000      -0.670542       -18.2464 
  32   2.0000      -0.669081       -18.2066 
  33   2.0000      -0.609188       -16.5769 
  34   2.0000      -0.560336       -15.2475 
  35   2.0000      -0.522310       -14.2128 
  36   2.0000      -0.521537       -14.1917 
  37   2.0000      -0.404694       -11.0123 
  38   2.0000      -0.400064       -10.8863 
  39   2.0000      -0.383017       -10.4224 
  40   2.0000      -0.365677        -9.9506 
  41   2.0000      -0.364960        -9.9311 
  42   2.0000      -0.362188        -9.8556 
  43   2.0000      -0.359523        -9.7831 
  44   2.0000      -0.352438        -9.5903 
  45   2.0000      -0.289664        -7.8822 
  46   0.0000      -0.009790        -0.2664 
  47   0.0000       0.029141         0.7930 
  48   0.0000       0.035791         0.9739 
  49   0.0000       0.042210         1.1486 
  50   0.0000       0.090510         2.4629 
  51   0.0000       0.111445         3.0326 
  52   0.0000       0.113343         3.0842 
  53   0.0000       0.115134         3.1330 
  54   0.0000       0.138285         3.7629 
  55   0.0000       0.143641         3.9087 
  56   0.0000       0.156216         4.2508 
  57   0.0000       0.162442         4.4203 
  58   0.0000       0.182348         4.9620 
  59   0.0000       0.234760         6.3881 
  60   0.0000       0.244479         6.6526 
  61   0.0000       0.250837         6.8256 
  62   0.0000       0.253736         6.9045 
  63   0.0000       0.269361         7.3297 
  64   0.0000       0.276987         7.5372 
  65   0.0000       0.277858         7.5609 
  66   0.0000       0.286217         7.7884 
  67   0.0000       0.320116         8.7108 
  68   0.0000       0.326854         8.8942 
  69   0.0000       0.353522         9.6198 
  70   0.0000       0.389311        10.5937 
  71   0.0000       0.404694        11.0123 
  72   0.0000       0.412876        11.2349 
  73   0.0000       0.421508        11.4698 
  74   0.0000       0.428299        11.6546 
  75   0.0000       0.430204        11.7065 
  76   0.0000       0.434198        11.8151 
  77   0.0000       0.443850        12.0778 
  78   0.0000       0.446670        12.1545 
  79   0.0000       0.449072        12.2199 
  80   0.0000       0.487274        13.2594 
  81   0.0000       0.488330        13.2881 
  82   0.0000       0.498354        13.5609 
  83   0.0000       0.522420        14.2158 
  84   0.0000       0.529547        14.4097 
  85   0.0000       0.530175        14.4268 
  86   0.0000       0.534411        14.5421 
  87   0.0000       0.538522        14.6539 
  88   0.0000       0.558961        15.2101 
  89   0.0000       0.562138        15.2966 
  90   0.0000       0.575008        15.6468 
  91   0.0000       0.584364        15.9013 
  92   0.0000       0.587629        15.9902 
  93   0.0000       0.625193        17.0124 
  94   0.0000       0.631337        17.1796 
  95   0.0000       0.638324        17.3697 
  96   0.0000       0.655256        17.8304 
  97   0.0000       0.672686        18.3047 
  98   0.0000       0.686655        18.6848 
  99   0.0000       0.703435        19.1415 
 100   0.0000       0.711164        19.3518 
 101   0.0000       0.727297        19.7907 
 102   0.0000       0.758329        20.6352 
 103   0.0000       0.781822        21.2745 
 104   0.0000       0.795582        21.6489 
 105   0.0000       0.861310        23.4374 
 106   0.0000       0.865687        23.5565 
 107   0.0000       0.880390        23.9566 
 108   0.0000       0.888808        24.1857 
 109   0.0000       0.893903        24.3243 
 110   0.0000       0.909154        24.7393 
 111   0.0000       0.912417        24.8281 
 112   0.0000       0.918323        24.9888 
 113   0.0000       0.951241        25.8846 
 114   0.0000       0.966474        26.2991 
 115   0.0000       0.983634        26.7660 
 116   0.0000       1.057004        28.7625 
 117   0.0000       1.065743        29.0003 
 118   0.0000       1.069474        29.1019 
 119   0.0000       1.086279        29.5592 
 120   0.0000       1.096379        29.8340 
 121   0.0000       1.097594        29.8670 
 122   0.0000       1.143897        31.1270 
 123   0.0000       1.231547        33.5121 
 124   0.0000       1.237454        33.6728 
 125   0.0000       1.303306        35.4648 
 126   0.0000       1.310574        35.6625 
 127   0.0000       1.320852        35.9422 
 128   0.0000       1.400515        38.1100 
 129   0.0000       1.421276        38.6749 
 130   0.0000       1.488513        40.5045 
 131   0.0000       1.565815        42.6080 
 132   0.0000       1.574692        42.8495 
 133   0.0000       1.592093        43.3230 
 134   0.0000       1.602241        43.5992 
 135   0.0000       1.610550        43.8253 
 136   0.0000       1.755473        47.7688 
 137   0.0000       1.780923        48.4614 
 138   0.0000       1.794162        48.8216 
 139   0.0000       1.890169        51.4341 
 140   0.0000       1.895771        51.5866 
 141   0.0000       1.904297        51.8186 
 142   0.0000       1.913423        52.0669 
 143   0.0000       1.915429        52.1215 
 144   0.0000       1.930349        52.5275 
 145   0.0000       1.956653        53.2432 
 146   0.0000       1.958882        53.3039 
 147   0.0000       1.962112        53.3918 
 148   0.0000       1.973856        53.7113 
 149   0.0000       2.011763        54.7429 
 150   0.0000       2.023162        55.0530 
 151   0.0000       2.026755        55.1508 
 152   0.0000       2.029876        55.2357 
 153   0.0000       2.038824        55.4792 
 154   0.0000       2.097116        57.0654 
 155   0.0000       2.102758        57.2189 
 156   0.0000       2.110472        57.4289 
 157   0.0000       2.113991        57.5246 
 158   0.0000       2.115954        57.5780 
 159   0.0000       2.122460        57.7551 
 160   0.0000       2.137518        58.1648 
 161   0.0000       2.148163        58.4545 
 162   0.0000       2.153715        58.6056 
 163   0.0000       2.175024        59.1854 
 164   0.0000       2.178719        59.2859 
 165   0.0000       2.183643        59.4199 
 166   0.0000       2.192398        59.6582 
 167   0.0000       2.204334        59.9830 
 168   0.0000       2.224727        60.5379 
 169   0.0000       2.226019        60.5730 
 170   0.0000       2.235078        60.8196 
 171   0.0000       2.239406        60.9373 
 172   0.0000       2.248852        61.1944 
 173   0.0000       2.259099        61.4732 
 174   0.0000       2.261820        61.5473 
 175   0.0000       2.276223        61.9392 
 176   0.0000       2.284984        62.1776 
 177   0.0000       2.313218        62.9458 
 178   0.0000       2.321700        63.1767 
 179   0.0000       2.339040        63.6485 
 180   0.0000       2.364002        64.3278 
 181   0.0000       2.370575        64.5066 
 182   0.0000       2.388155        64.9850 
 183   0.0000       2.389591        65.0241 
 184   0.0000       2.399540        65.2948 
 185   0.0000       2.404168        65.4207 
 186   0.0000       2.416746        65.7630 
 187   0.0000       2.427306        66.0504 
 188   0.0000       2.432574        66.1937 
 189   0.0000       2.442264        66.4574 
 190   0.0000       2.455111        66.8070 
 191   0.0000       2.464754        67.0694 
 192   0.0000       2.484399        67.6039 
 193   0.0000       2.487084        67.6770 
 194   0.0000       2.506047        68.1930 
 195   0.0000       2.524286        68.6893 
 196   0.0000       2.576268        70.1038 
 197   0.0000       2.580678        70.2238 
 198   0.0000       2.608982        70.9940 
 199   0.0000       2.624230        71.4089 
 200   0.0000       2.626244        71.4637 
 201   0.0000       2.636578        71.7449 
 202   0.0000       2.676192        72.8229 
 203   0.0000       2.779442        75.6325 
 204   0.0000       2.795675        76.0742 
 205   0.0000       2.806266        76.3624 
 206   0.0000       2.819839        76.7317 
 207   0.0000       2.852187        77.6120 
 208   0.0000       2.878414        78.3256 
 209   0.0000       2.927475        79.6606 
 210   0.0000       2.957576        80.4797 
 211   0.0000       3.090131        84.0867 
 212   0.0000       3.141853        85.4942 
 213   0.0000       3.145999        85.6070 
 214   0.0000       3.226571        87.7995 
 215   0.0000       3.240224        88.1710 
 216   0.0000       3.318412        90.2986 
 217   0.0000       3.396933        92.4353 
 218   0.0000       3.415633        92.9441 
 219   0.0000       3.558346        96.8275 
 220   0.0000       3.588283        97.6422 
 221   0.0000       3.594959        97.8238 
 222   0.0000       3.780334       102.8681 
 223   0.0000       3.785778       103.0163 
 224   0.0000       3.928689       106.9051 
 225   0.0000       4.206689       114.4698 
 226   0.0000       4.214770       114.6897 
 227   0.0000       4.415648       120.1559 
 228   0.0000       4.451708       121.1371 
 229   0.0000       4.857662       132.1837 
 230   0.0000       4.860525       132.2616 
 231   0.0000       4.966158       135.1360 
 232   0.0000       4.976887       135.4280 
 233   0.0000       5.118565       139.2832 
 234   0.0000       5.139621       139.8562 
 235   0.0000       5.156297       140.3100 
 236   0.0000       5.338221       145.2604 
 237   0.0000       5.530849       150.5021 
 238   0.0000       5.535848       150.6381 
 239   0.0000       5.861518       159.5000 
 240   0.0000      11.037513       300.3460 
 241   0.0000      11.041200       300.4463 
 242   0.0000      11.054595       300.8108 
 243   0.0000      11.093894       301.8802 
 244   0.0000      11.104408       302.1663 
 245   0.0000      11.113497       302.4136 
 246   0.0000      11.171408       303.9895 
 247   0.0000      11.207591       304.9741 
 248   0.0000      11.214362       305.1583 
 249   0.0000      22.676818       617.0676 
 250   0.0000      25.319092       688.9675 
 251   0.0000      25.407610       691.3762 
 252   0.0000      25.544134       695.0912 
 253   0.0000      32.439522       882.7243 
 254   0.0000      35.565164       967.7773 
 255   0.0000      35.816960       974.6290 
 256   0.0000      35.827218       974.9082 
 257   0.0000      35.922676       977.5057 
 258   0.0000     123.629209      3364.1218 

                    ********************************
                    * MULLIKEN POPULATION ANALYSIS *
                    ********************************

-----------------------
MULLIKEN ATOMIC CHARGES
-----------------------
   0 C :   -0.261852
   1 N :   -0.330410
   2 H :    0.159839
   3 H :    0.158806
   4 H :    0.158912
   5 H :    0.292876
   6 H :    0.293626
   7 H :    0.297756
   8 Pb:    0.776676
   9 Cl:   -0.508318
  10 Cl:   -0.520347
  11 Cl:   -0.517563
Sum of atomic charges:    0.0000000

--------------------------------
MULLIKEN REDUCED ORBITAL CHARGES
--------------------------------
  0 C s       :     3.281123  s :     3.281123
      pz      :     0.977983  p :     2.905615
      px      :     0.991636
      py      :     0.935996
      dz2     :     0.006888  d :     0.068950
      dxz     :     0.018356
      dyz     :     0.017884
      dx2y2   :     0.007670
      dxy     :     0.018152
      f0      :     0.000361  f :     0.006165
      f+1     :     0.000509
      f-1     :     0.000746
      f+2     :     0.000766
      f-2     :     0.002644
      f+3     :     0.000518
      f-3     :     0.000621
  1 N s       :     3.428648  s :     3.428648
      pz      :     1.286495  p :     3.853372
      px      :     1.292197
      py      :     1.274680
      dz2     :     0.005356  d :     0.046257
      dxz     :     0.012358
      dyz     :     0.011142
      dx2y2   :     0.005871
      dxy     :     0.011530
      f0      :     0.000109  f :     0.002133
      f+1     :     0.000160
      f-1     :     0.000195
      f+2     :     0.000213
      f-2     :     0.001128
      f+3     :     0.000158
      f-3     :     0.000169
  2 H s       :     0.818390  s :     0.818390
      pz      :     0.008291  p :     0.021771
      px      :     0.007791
      py      :     0.005689
  3 H s       :     0.819466  s :     0.819466
      pz      :     0.006930  p :     0.021728
      px      :     0.007322
      py      :     0.007476
  4 H s       :     0.819325  s :     0.819325
      pz      :     0.006774  p :     0.021763
      px      :     0.007427
      py      :     0.007562
  5 H s       :     0.665774  s :     0.665774
      pz      :     0.009943  p :     0.041350
      px      :     0.014789
      py      :     0.016618
  6 H s       :     0.660035  s :     0.660035
      pz      :     0.015537  p :     0.046339
      px      :     0.012091
      py      :     0.018711
  7 H s       :     0.655857  s :     0.655857
      pz      :     0.019830  p :     0.046387
      px      :     0.017961
      py      :     0.008596
  8 Pbs       :     3.928514  s :     3.928514
      pz      :     2.371042  p :     7.064927
      px      :     2.341015
      py      :     2.352869
      dz2     :     2.031529  d :    10.156625
      dxz     :     2.032732
      dyz     :     2.030764
      dx2y2   :     2.029133
      dxy     :     2.032467
      f0      :     0.015141  f :     0.073258
      f+1     :     0.011198
      f-1     :     0.010345
      f+2     :     0.007891
      f-2     :     0.002915
      f+3     :     0.013215
      f-3     :     0.012553
  9 Cls       :     5.953040  s :     5.953040
      pz      :     3.919052  p :    11.530865
      px      :     3.719186
      py      :     3.892628
      dz2     :     0.003224  d :     0.023362
      dxz     :     0.003863
      dyz     :     0.002418
      dx2y2   :     0.009441
      dxy     :     0.004417
      f0      :     0.000108  f :     0.001050
      f+1     :     0.000207
      f-1     :     0.000044
      f+2     :     0.000137
      f-2     :     0.000069
      f+3     :     0.000327
      f-3     :     0.000158
 10 Cls       :     5.953024  s :     5.953024
      pz      :     3.902046  p :    11.543880
      px      :     3.900351
      py      :     3.741483
      dz2     :     0.003668  d :     0.022463
      dxz     :     0.003750
      dyz     :     0.003361
      dx2y2   :     0.007668
      dxy     :     0.004017
      f0      :     0.000076  f :     0.000980
      f+1     :     0.000125
      f-1     :     0.000146
      f+2     :     0.000162
      f-2     :     0.000066
      f+3     :     0.000199
      f-3     :     0.000206
 11 Cls       :     5.953119  s :     5.953119
      pz      :     3.732683  p :    11.542537
      px      :     3.911907
      py      :     3.897947
      dz2     :     0.010325  d :     0.020980
      dxz     :     0.003905
      dyz     :     0.003460
      dx2y2   :     0.000937
      dxy     :     0.002352
      f0      :     0.000368  f :     0.000928
      f+1     :     0.000222
      f-1     :     0.000163
      f+2     :     0.000038
      f-2     :     0.000058
      f+3     :     0.000055
      f-3     :     0.000024


                     *******************************
                     * LOEWDIN POPULATION ANALYSIS *
                     *******************************

----------------------
LOEWDIN ATOMIC CHARGES
----------------------
   0 C :   -0.274284
   1 N :    0.066571
   2 H :    0.125966
   3 H :    0.125480
   4 H :    0.125902
   5 H :    0.167843
   6 H :    0.144145
   7 H :    0.145246
   8 Pb:   -0.103298
   9 Cl:   -0.161433
  10 Cl:   -0.178022
  11 Cl:   -0.184116

-------------------------------
LOEWDIN REDUCED ORBITAL CHARGES
-------------------------------
  0 C s       :     2.853006  s :     2.853006
      pz      :     1.032263  p :     3.080019
      px      :     1.042393
      py      :     1.005363
      dz2     :     0.029293  d :     0.304134
      dxz     :     0.079372
      dyz     :     0.081725
      dx2y2   :     0.032837
      dxy     :     0.080906
      f0      :     0.005260  f :     0.037126
      f+1     :     0.003953
      f-1     :     0.005767
      f+2     :     0.004393
      f-2     :     0.007007
      f+3     :     0.004926
      f-3     :     0.005821
  1 N s       :     3.000769  s :     3.000769
      pz      :     1.253972  p :     3.763988
      px      :     1.257125
      py      :     1.252891
      dz2     :     0.017243  d :     0.159171
      dxz     :     0.041895
      dyz     :     0.040371
      dx2y2   :     0.018898
      dxy     :     0.040764
      f0      :     0.001443  f :     0.009502
      f+1     :     0.001125
      f-1     :     0.001407
      f+2     :     0.001028
      f-2     :     0.001762
      f+3     :     0.001239
      f-3     :     0.001498
  2 H s       :     0.811746  s :     0.811746
      pz      :     0.022847  p :     0.062288
      px      :     0.021714
      py      :     0.017727
  3 H s       :     0.812312  s :     0.812312
      pz      :     0.019423  p :     0.062209
      px      :     0.022251
      py      :     0.020535
  4 H s       :     0.811856  s :     0.811856
      pz      :     0.020764  p :     0.062243
      px      :     0.020755
      py      :     0.020724
  5 H s       :     0.707834  s :     0.707834
      pz      :     0.032955  p :     0.124322
      px      :     0.043421
      py      :     0.047946
  6 H s       :     0.712152  s :     0.712152
      pz      :     0.046924  p :     0.143703
      px      :     0.040283
      py      :     0.056496
  7 H s       :     0.710867  s :     0.710867
      pz      :     0.060473  p :     0.143887
      px      :     0.054945
      py      :     0.028468
  8 Pbs       :     3.688690  s :     3.688690
      pz      :     2.528200  p :     7.530477
      px      :     2.501700
      py      :     2.500576
      dz2     :     2.163813  d :    10.662697
      dxz     :     2.110448
      dyz     :     2.107458
      dx2y2   :     2.167156
      dxy     :     2.113823
      f0      :     0.045707  f :     0.221434
      f+1     :     0.036825
      f-1     :     0.029504
      f+2     :     0.020165
      f-2     :     0.008811
      f+3     :     0.046215
      f-3     :     0.034207
  9 Cls       :     5.728087  s :     5.728087
      pz      :     3.859176  p :    11.386859
      px      :     3.696478
      py      :     3.831205
      dz2     :     0.007517  d :     0.043896
      dxz     :     0.004103
      dyz     :     0.004311
      dx2y2   :     0.023584
      dxy     :     0.004380
      f0      :     0.000152  f :     0.002592
      f+1     :     0.000639
      f-1     :     0.000077
      f+2     :     0.000282
      f-2     :     0.000125
      f+3     :     0.001094
      f-3     :     0.000224
 10 Cls       :     5.735420  s :     5.735420
      pz      :     3.837759  p :    11.397930
      px      :     3.839020
      py      :     3.721151
      dz2     :     0.008072  d :     0.042249
      dxz     :     0.005834
      dyz     :     0.003809
      dx2y2   :     0.018899
      dxy     :     0.005636
      f0      :     0.000120  f :     0.002423
      f+1     :     0.000289
      f-1     :     0.000483
      f+2     :     0.000352
      f-2     :     0.000079
      f+3     :     0.000465
      f-3     :     0.000634
 11 Cls       :     5.738372  s :     5.738372
      pz      :     3.709907  p :    11.405146
      px      :     3.855338
      py      :     3.839902
      dz2     :     0.025687  d :     0.038409
      dxz     :     0.004983
      dyz     :     0.003578
      dx2y2   :     0.000904
      dxy     :     0.003257
      f0      :     0.001197  f :     0.002189
      f+1     :     0.000457
      f-1     :     0.000285
      f+2     :     0.000038
      f-2     :     0.000064
      f+3     :     0.000117
      f-3     :     0.000031


                      *****************************
                      * MAYER POPULATION ANALYSIS *
                      *****************************

  NA   - Mulliken gross atomic population
  ZA   - Total nuclear charge
  QA   - Mulliken gross atomic charge
  VA   - Mayer's total valence
  BVA  - Mayer's bonded valence
  FA   - Mayer's free valence

  ATOM       NA         ZA         QA         VA         BVA        FA
  0 C      6.2619     6.0000    -0.2619     3.8418     3.8418     0.0000
  1 N      7.3304     7.0000    -0.3304     3.2768     3.2768     0.0000
  2 H      0.8402     1.0000     0.1598     0.9629     0.9629    -0.0000
  3 H      0.8412     1.0000     0.1588     0.9616     0.9616     0.0000
  4 H      0.8411     1.0000     0.1589     0.9633     0.9633     0.0000
  5 H      0.7071     1.0000     0.2929     0.9634     0.9634     0.0000
  6 H      0.7064     1.0000     0.2936     0.9674     0.9674     0.0000
  7 H      0.7022     1.0000     0.2978     0.9668     0.9668    -0.0000
  8 Pb    21.2233    22.0000     0.7767     2.0073     2.0073     0.0000
  9 Cl    17.5083    17.0000    -0.5083     0.8377     0.8377     0.0000
 10 Cl    17.5203    17.0000    -0.5203     0.8190     0.8190    -0.0000
 11 Cl    17.5176    17.0000    -0.5176     0.8228     0.8228     0.0000

  Mayer bond orders larger than 0.1
B(  0-C ,  1-N ) :   0.8995 B(  0-C ,  2-H ) :   0.9709 B(  0-C ,  3-H ) :   0.9700 
B(  0-C ,  4-H ) :   0.9708 B(  1-N ,  5-H ) :   0.8205 B(  1-N ,  6-H ) :   0.7949 
B(  1-N ,  7-H ) :   0.7971 B(  5-H , 11-Cl) :   0.1437 B(  6-H ,  9-Cl) :   0.1835 
B(  7-H , 10-Cl) :   0.1739 B(  8-Pb,  9-Cl) :   0.6596 B(  8-Pb, 10-Cl) :   0.6402 
B(  8-Pb, 11-Cl) :   0.6787 

-------
TIMINGS
-------

Total SCF time: 0 days 0 hours 5 min 13 sec 

Total time                  ....     313.301 sec
Sum of individual times     ....     287.002 sec  ( 91.6%)

Fock matrix formation       ....     281.969 sec  ( 90.0%)
  Coulomb formation         ....     234.475 sec  ( 83.2% of F)
  Split-RI-J                ....      16.875 sec  (  6.0% of F)
  Chain of spheres X        ....     243.047 sec  ( 86.2% of F)
  COS-X 1 center corr.      ....       0.000 sec  (  0.0% of F)
  XC integration            ....      47.535 sec  ( 16.9% of F)
    Basis function eval.    ....      15.075 sec  ( 31.7% of XC)
    Density eval.           ....      13.406 sec  ( 28.2% of XC)
    XC-Functional eval.     ....       2.858 sec  (  6.0% of XC)
    XC-Potential eval.      ....      15.406 sec  ( 32.4% of XC)
Diagonalization             ....       0.535 sec  (  0.2%)
Density matrix formation    ....       0.044 sec  (  0.0%)
Population analysis         ....       0.067 sec  (  0.0%)
Initial guess               ....       0.272 sec  (  0.1%)
Orbital Transformation      ....       0.000 sec  (  0.0%)
Orbital Orthonormalization  ....       0.266 sec  (  0.1%)
DIIS solution               ....       0.152 sec  (  0.0%)
SOSCF solution              ....       0.067 sec  (  0.0%)
Grid generation             ....       3.896 sec  (  1.2%)

------------------------------------------------------------------------------
                              ORCA MP2 CALCULATION
------------------------------------------------------------------------------


----------------------
RI-MP2 ENERGY+GRADIENT
----------------------
Dimension of the basis                    ...  259
Memory devoted to MP2                     ... 1000 MB   
Data format for buffers                   ... DOUBLE
Compression type for matrix containers    ... UNCOMPRESSED
Overall scaling of the MP2 energy         ...   2.700e-01 Eh
Calculating two index integrals           ... done (    0.018 sec)
Cholesky decomposition of the V-matrix    ... done
Cholesky decomposition of V**-1           ... done (    0.044 sec)

-----------------
RI-TRANSFORMATION (AUX index driven)
-----------------

Dimension of the orbital-basis         ... 259
Dimension of the aux-basis             ... 493
Transformation of internal MOs         ...    0-  45
Transformation of internal/external MOs...    0-  45 to   46- 258
Number Format for Storage              ... Double (8 Byte)
Integral mode                          ... Direct

First Phase: integral generation and transformation of MO indices
  Aux angular momentum 0               ... done (    0.659 sec)
  Aux angular momentum 1               ... done (    0.331 sec)
  Aux angular momentum 2               ... done (    0.392 sec)
  Aux angular momentum 3               ... done (    0.227 sec)
  Aux angular momentum 4               ... done (    0.198 sec)
Closing buffer VIJ ( 0.00 GB; CompressionRatio= 1.95)
Closing buffer VIA ( 0.04 GB; CompressionRatio= 1.00)
  Phase 1 completed in     1.983 sec
Second Phase: sorting and transformation of aux index

IJ-Transformation
Memory available                       ... 990 MB 
Max. # MO pairs treated in a batch     ... 46    
# of internal orbitals                 ... 46
# batches for internal orbitals        ... 1
Closing buffer IJV ( 0.00 GB; CompressionRatio= 1.00)
(ij|v) transformation done in     0.109 sec

IA-Transformation
Memory available                       ... 990 MB 
Max. # MO pairs treated in a batch     ... 46    
# of internal orbitals                 ... 46
# batches for internal orbitals        ... 1
Closing buffer IAV ( 0.04 GB; CompressionRatio= 1.00)
(ia|v) transformation done in     0.469 sec

  Phase 2 completed in     0.595 sec
RI-Integral transformation completed in     2.578 sec
Opening buffers                              ... done

Starting loop over batches of integrals:

Operator 0  - window                       ... (  0- 45)x( 46-258)
Operator 0  - Memory available             ...  1000 MB
Operator 0  - Memory needed per MO         ...   1.6 MB
Operator 0  - Number of orbitals per batch ... 46
Operator 0  - Number of batches            ... 1

OPERATOR  0   PASS   0:  MOs     0 ...   45
  Reading integrals       ... ok
  Internal MO   2
  Internal MO   5
  Internal MO   8
  Internal MO  11
  Internal MO  14
  Internal MO  17
  Internal MO  20
  Internal MO  23
  Internal MO  26
  Internal MO  29
  Internal MO  32
  Internal MO  35
  Internal MO  38
  Internal MO  41
  Internal MO  44
Closing buffer GIPV ( 0.04 GB; CompressionRatio= 1.00)
Time spent in pair loops =    51.013 sec

-----------------------------------------------
 RI-MP2 CORRELATION ENERGY:     -0.582205615 Eh
-----------------------------------------------


---------------------
MP2 DENSITY FORMATION
---------------------

Completing the external part of the density      ... done
Storing the unrelaxed density                    ... done

Calculating the xc-kernel                        ... done
Calculating G(D)                                 ... done
Completing the Lagrangian                        ... done
Solving the Z-vector equations                   ... 

------------------------------------------------------------------------------
                           ORCA CP-SCF CALCULATION
------------------------------------------------------------------------------

Input orbitals are from        ... PbMACl3_mp2_md2_22.orca.gbw
Input Perturbation             ... PbMACl3_mp2_md2_22.orca.pin.tmp
Wavefunction output            ... PbMACl3_mp2_md2_22.orca.pout.tmp
Perturbation mode              ... Real perturbation
Solver                         ... DIIS
   MaxDIIS                     ... 20
   Levelshift                  ...    3.000e-01 Eh
Max. number of iterations      ... 128
Convergence tolerance          ... 1.000e-08
Integral handling              ... Direct
COSX GridX                     ... 1
Number of perturbations        ... 1
Number of operators            ... 1
Orbital ranges used for CP-SCF:
 Operator 0:  Orbitals   0... 45  to  46...258
DFT calculation                         ... on
Exchange functional (SCF)               ... B88
Exchange functional (CP-SCF)            ... B88
   X-Alpha parameter    XAlpha (SCF)    ...  0.666667
   X-Alpha parameter    XAlpha (CP-SCF) ...  0.666667
   Becke's b parameter  XBeta (SCF)     ...  0.004200
   Becke's b parameter  XBeta (CP-SCF)  ...  0.004200
Correlation functional (SCF)            ... LYP
Correlation functional (CP-SCF)         ... LYP
 LDA part of GGA corr.  LDAOpt (SCF)    ... VWN-3
 LDA part of GGA corr.  LDAOpt (CP-SCF) ... VWN-3
Hybrid DFT                              ... on
   Exchange mixing (SCF)                ...  0.530
   Exchange mixing (CP-SCF)             ...  0.530
   GGA exch. scaling(SCF)               ...  0.470
   GGA exch. scaling (CP-SCF)           ...  0.470
   GGA corr. scaling (SCF)              ...  0.730
   GGA corr. scaling (CP-SCF)           ...  0.730
The RIJCOSX approximation is active
Variables per vector in CP-SCF ... 9798
Number of vectors sought       ... 1
Calculating the xc-kernel      ... done

Solving the CP-SCF equations by a DIIS algorithm

-----------------
CP-SCF ITERATIONS
-----------------
  Iteration   0: MaxR=  0.088955572
  Iteration   1: MaxR=  0.042414959
  Iteration   2: MaxR=  0.011883290
  Iteration   3: MaxR=  0.004737794
  Iteration   4: MaxR=  0.002111756
  Iteration   5: MaxR=  0.000817452
  Iteration   6: MaxR=  0.000328753
  Iteration   7: MaxR=  0.000097329
  Iteration   8: MaxR=  0.000035573
  Iteration   9: MaxR=  0.000009438
  Iteration  10: MaxR=  0.000003526
  Iteration  11: MaxR=  0.000001319
  Iteration  12: MaxR=  0.000000621
  Iteration  13: MaxR=  0.000000183
  Iteration  14: MaxR=  0.000000068
  Iteration  15: MaxR=  0.000000026
  Iteration  16: MaxR=  0.000000010
                              *** THE CP-SCF HAS CONVERGED *** 
done
Finalizing the relaxed density                   ... done
Transforming P to the AO basis                   ... done
Storing the relaxed density                      ... done

------------------------------------
ENERGY WEIGHTED DENSITY FINALIZATION
------------------------------------

Gathering the parts of the W-matrix              ... done
Forming the Z-density                            ... done
Transforming Z to the AO basis                   ... done
Calculating G(Z)                                 ... done
Finalizing the W-matrix                          ... done
Transforming W to the AO basis and storing       ... done
Entering the RIJONX and RIJCOSX sections
Starting the three-index derivative integrals:
Operator 0  - Memory available             ...  1000 MB
Operator 0  - Memory needed per MO         ...   1.0 MB
Operator 0  - Number of orbitals per batch ... 46
Operator 0  - Number of batches            ... 1

OPERATOR  0   PASS   0:  MOs     0 ...   45

----------------------------------
MP2 DERIVATIVE INTEGRAL GENERATION
----------------------------------


Input Correlated Electron Density   ... PbMACl3_mp2_md2_22.orca.pmp2re
Input Energy Weighted Density       ... PbMACl3_mp2_md2_22.orca.wmp2.tmp
Input SCF Electron Density          ... PbMACl3_mp2_md2_22.orca.scfp.tmp

One-Electron Terms    ...
  ECP gradient                                           ... One-Electron Terms done

-----------------------------------------------------------
MP2 COSX Grid Generation
-----------------------------------------------------------

General Integration Accuracy     IntAcc      ...  4.340
Radial Grid Type                 RadialGrid  ... Gauss-Chebyshev
Angular Grid (max. acc.)         AngularGrid ... Lebedev-302
Angular grid pruning method      GridPruning ... 3 (G Style)
Weight generation scheme         WeightScheme... Becke
Basis function cutoff            BFCut       ...    1.0000e-11
Integration weight cutoff        WCut        ...    1.0000e-14
Grids for H and He will be reduced by one unit

# of grid points (after initial pruning)     ...  57718 (   0.0 sec)
# of grid points (after weights+screening)   ...  54261 (   0.1 sec)
nearest neighbour list constructed           ...    0.0 sec
Grid point re-assignment to atoms done       ...    0.0 sec
Grid point division into batches done        ...    0.2 sec
Reduced shell lists constructed in    1.0 sec

Total number of grid points                  ...    54261
Total number of batches                      ...      854
Average number of points per batch           ...       63
Average number of grid points per atom       ...     4522
Average number of shells per batch           ...    57.89 (57.32%)
Average number of basis functions per batch  ...   154.01 (59.46%)
Average number of large shells per batch     ...    44.11 (76.19%)
Average number of large basis fcns per batch ...   114.39 (74.28%)
Maximum spatial batch extension              ...  35.78, 31.21, 31.14 au
Average spatial batch extension              ...   3.05,  3.02,  3.02 au

Overlap Fitting                  UseSFitting ... on
Two electron COSX terms .... 
Integration Timings:
Total Time                  =   106.7 sec
Basis fcn evaluation        =     0.3 sec
Density evaluation          =     1.0 sec
Integral evaluation         =   103.3 sec
K(P) evaluation             =     0.9 sec
                          .... COSX two electron terms done
COSX two-electron contribution to the gradient
     0:    -0.020164    -0.022443    -0.021632
     1:     0.060304     0.060497     0.047600
     2:     0.100459    -0.082151     0.107716
     3:    -0.103901     0.097615     0.089249
     4:     0.095856     0.099366    -0.097167
     5:    -0.108422    -0.109603     0.094439
     6:     0.086876    -0.106127    -0.098960
     7:    -0.107607     0.070156    -0.113819
     8:    -0.023480    -0.028749    -0.042359
     9:     0.070138    -0.018262    -0.009851
    10:    -0.026403     0.060582    -0.022581
    11:    -0.023229    -0.021101     0.067495
Exchange-correlation gradient    ... done
Dispersion correction            ... 
Entering the calculation of the dispersion correction...

Checking the input atom types...

Done
done

                *********************************************
                * UNRELAXED MP2 DENSITY POPULATION ANALYSIS *
                *********************************************

------------------------------------------------------------------------------
                           ORCA POPULATION ANALYSIS
------------------------------------------------------------------------------
Input electron density              ... PbMACl3_mp2_md2_22.orca.pmp2ur
BaseName (.gbw .S,...)              ... PbMACl3_mp2_md2_22.orca

                    ********************************
                    * MULLIKEN POPULATION ANALYSIS *
                    ********************************

-----------------------
MULLIKEN ATOMIC CHARGES
-----------------------
   0 C :   -0.266270
   1 N :   -0.329233
   2 H :    0.160863
   3 H :    0.159849
   4 H :    0.159947
   5 H :    0.291659
   6 H :    0.292170
   7 H :    0.296394
   8 Pb:    0.761902
   9 Cl:   -0.502035
  10 Cl:   -0.514052
  11 Cl:   -0.511194
Sum of atomic charges:    0.0000000

--------------------------------
MULLIKEN REDUCED ORBITAL CHARGES
--------------------------------
  0 C s       :     3.279900  s :     3.279900
      pz      :     0.976568  p :     2.901547
      px      :     0.990106
      py      :     0.934873
      dz2     :     0.008913  d :     0.077519
      dxz     :     0.019922
      dyz     :     0.019360
      dx2y2   :     0.009671
      dxy     :     0.019653
      f0      :     0.000518  f :     0.007304
      f+1     :     0.000684
      f-1     :     0.000917
      f+2     :     0.000947
      f-2     :     0.002768
      f+3     :     0.000684
      f-3     :     0.000786
  1 N s       :     3.426270  s :     3.426270
      pz      :     1.282784  p :     3.842287
      px      :     1.288530
      py      :     1.270972
      dz2     :     0.007705  d :     0.057494
      dxz     :     0.014523
      dyz     :     0.013334
      dx2y2   :     0.008223
      dxy     :     0.013710
      f0      :     0.000255  f :     0.003183
      f+1     :     0.000312
      f-1     :     0.000349
      f+2     :     0.000370
      f-2     :     0.001270
      f+3     :     0.000307
      f-3     :     0.000320
  2 H s       :     0.816358  s :     0.816358
      pz      :     0.008615  p :     0.022780
      px      :     0.008119
      py      :     0.006046
  3 H s       :     0.817413  s :     0.817413
      pz      :     0.007267  p :     0.022738
      px      :     0.007663
      py      :     0.007808
  4 H s       :     0.817283  s :     0.817283
      pz      :     0.007120  p :     0.022770
      px      :     0.007757
      py      :     0.007893
  5 H s       :     0.666371  s :     0.666371
      pz      :     0.010152  p :     0.041970
      px      :     0.014992
      py      :     0.016827
  6 H s       :     0.660820  s :     0.660820
      pz      :     0.015773  p :     0.047010
      px      :     0.012300
      py      :     0.018937
  7 H s       :     0.656572  s :     0.656572
      pz      :     0.020023  p :     0.047034
      px      :     0.018163
      py      :     0.008847
  8 Pbs       :     3.909696  s :     3.909696
      pz      :     2.379098  p :     7.090169
      px      :     2.349714
      py      :     2.361357
      dz2     :     2.026012  d :    10.128833
      dxz     :     2.027214
      dyz     :     2.025173
      dx2y2   :     2.023546
      dxy     :     2.026888
      f0      :     0.020256  f :     0.109399
      f+1     :     0.016319
      f-1     :     0.015539
      f+2     :     0.013148
      f-2     :     0.008085
      f+3     :     0.018283
      f-3     :     0.017769
  9 Cls       :     5.948474  s :     5.948474
      pz      :     3.904431  p :    11.487210
      px      :     3.704856
      py      :     3.877923
      dz2     :     0.011006  d :     0.062527
      dxz     :     0.011753
      dyz     :     0.010254
      dx2y2   :     0.017193
      dxy     :     0.012321
      f0      :     0.000496  f :     0.003823
      f+1     :     0.000600
      f-1     :     0.000425
      f+2     :     0.000540
      f-2     :     0.000464
      f+3     :     0.000729
      f-3     :     0.000569
 10 Cls       :     5.948469  s :     5.948469
      pz      :     3.887356  p :    11.500146
      px      :     3.885712
      py      :     3.727077
      dz2     :     0.011501  d :     0.061688
      dxz     :     0.011604
      dyz     :     0.011247
      dx2y2   :     0.015465
      dxy     :     0.011871
      f0      :     0.000466  f :     0.003749
      f+1     :     0.000514
      f-1     :     0.000540
      f+2     :     0.000563
      f-2     :     0.000461
      f+3     :     0.000600
      f-3     :     0.000606
 11 Cls       :     5.948543  s :     5.948543
      pz      :     3.718335  p :    11.498952
      px      :     3.897341
      py      :     3.883275
      dz2     :     0.018070  d :     0.060025
      dxz     :     0.011731
      dyz     :     0.011319
      dx2y2   :     0.008735
      dxy     :     0.010170
      f0      :     0.000769  f :     0.003674
      f+1     :     0.000624
      f-1     :     0.000569
      f+2     :     0.000426
      f-2     :     0.000449
      f+3     :     0.000435
      f-3     :     0.000401


                     *******************************
                     * LOEWDIN POPULATION ANALYSIS *
                     *******************************

----------------------
LOEWDIN ATOMIC CHARGES
----------------------
   0 C :   -0.277307
   1 N :    0.065662
   2 H :    0.126700
   3 H :    0.126218
   4 H :    0.126642
   5 H :    0.167222
   6 H :    0.143558
   7 H :    0.144672
   8 Pb:   -0.113153
   9 Cl:   -0.157089
  10 Cl:   -0.173574
  11 Cl:   -0.179549

-------------------------------
LOEWDIN REDUCED ORBITAL CHARGES
-------------------------------
  0 C s       :     2.852399  s :     2.852399
      pz      :     1.029884  p :     3.072973
      px      :     1.039940
      py      :     1.003149
      dz2     :     0.031087  d :     0.313047
      dxz     :     0.081179
      dyz     :     0.083496
      dx2y2   :     0.034603
      dxy     :     0.082682
      f0      :     0.005487  f :     0.038888
      f+1     :     0.004168
      f-1     :     0.005976
      f+2     :     0.004606
      f-2     :     0.007467
      f+3     :     0.005155
      f-3     :     0.006030
  1 N s       :     3.000262  s :     3.000262
      pz      :     1.250044  p :     3.752163
      px      :     1.253235
      py      :     1.248885
      dz2     :     0.019320  d :     0.171040
      dxz     :     0.044459
      dyz     :     0.042949
      dx2y2   :     0.020978
      dxy     :     0.043335
      f0      :     0.001626  f :     0.010872
      f+1     :     0.001304
      f-1     :     0.001583
      f+2     :     0.001206
      f-2     :     0.002054
      f+3     :     0.001424
      f-3     :     0.001674
  2 H s       :     0.809175  s :     0.809175
      pz      :     0.023497  p :     0.064126
      px      :     0.022332
      py      :     0.018296
  3 H s       :     0.809732  s :     0.809732
      pz      :     0.020003  p :     0.064050
      px      :     0.022895
      py      :     0.021152
  4 H s       :     0.809281  s :     0.809281
      pz      :     0.021381  p :     0.064078
      px      :     0.021353
      py      :     0.021344
  5 H s       :     0.707015  s :     0.707015
      pz      :     0.033412  p :     0.125763
      px      :     0.043901
      py      :     0.048450
  6 H s       :     0.711381  s :     0.711381
      pz      :     0.047372  p :     0.145061
      px      :     0.040739
      py      :     0.056951
  7 H s       :     0.710114  s :     0.710114
      pz      :     0.060917  p :     0.145215
      px      :     0.055386
      py      :     0.028912
  8 Pbs       :     3.672280  s :     3.672280
      pz      :     2.534730  p :     7.551188
      px      :     2.508868
      py      :     2.507589
      dz2     :     2.157750  d :    10.632371
      dxz     :     2.104484
      dyz     :     2.101389
      dx2y2   :     2.161006
      dxy     :     2.107742
      f0      :     0.050734  f :     0.257314
      f+1     :     0.041904
      f-1     :     0.034667
      f+2     :     0.025427
      f-2     :     0.014027
      f+3     :     0.051189
      f-3     :     0.039366
  9 Cls       :     5.723749  s :     5.723749
      pz      :     3.844955  p :    11.344757
      px      :     3.682818
      py      :     3.816984
      dz2     :     0.015353  d :     0.083146
      dxz     :     0.011922
      dyz     :     0.012161
      dx2y2   :     0.031488
      dxy     :     0.012223
      f0      :     0.000545  f :     0.005437
      f+1     :     0.001049
      f-1     :     0.000460
      f+2     :     0.000692
      f-2     :     0.000523
      f+3     :     0.001522
      f-3     :     0.000646
 10 Cls       :     5.731060  s :     5.731060
      pz      :     3.823563  p :    11.355728
      px      :     3.824858
      py      :     3.707307
      dz2     :     0.015935  d :     0.081528
      dxz     :     0.013682
      dyz     :     0.011685
      dx2y2   :     0.026728
      dxy     :     0.013498
      f0      :     0.000516  f :     0.005258
      f+1     :     0.000683
      f-1     :     0.000890
      f+2     :     0.000762
      f-2     :     0.000478
      f+3     :     0.000882
      f-3     :     0.001048
 11 Cls       :     5.734009  s :     5.734009
      pz      :     3.696162  p :    11.362970
      px      :     3.841165
      py      :     3.825643
      dz2     :     0.033531  d :     0.077566
      dxz     :     0.012806
      dyz     :     0.011418
      dx2y2   :     0.008723
      dxy     :     0.011089
      f0      :     0.001627  f :     0.005004
      f+1     :     0.000877
      f-1     :     0.000703
      f+2     :     0.000428
      f-2     :     0.000458
      f+3     :     0.000501
      f-3     :     0.000410


                      *****************************
                      * MAYER POPULATION ANALYSIS *
                      *****************************

  NA   - Mulliken gross atomic population
  ZA   - Total nuclear charge
  QA   - Mulliken gross atomic charge
  VA   - Mayer's total valence
  BVA  - Mayer's bonded valence
  FA   - Mayer's free valence

  ATOM       NA         ZA         QA         VA         BVA        FA
  0 C      6.2663     6.0000    -0.2663     3.8876     3.7725     0.1151
  1 N      7.3292     7.0000    -0.3292     3.3524     3.2059     0.1465
  2 H      0.8391     1.0000     0.1609     0.9655     0.9471     0.0184
  3 H      0.8402     1.0000     0.1598     0.9643     0.9458     0.0184
  4 H      0.8401     1.0000     0.1599     0.9659     0.9475     0.0184
  5 H      0.7083     1.0000     0.2917     0.9661     0.9452     0.0209
  6 H      0.7078     1.0000     0.2922     0.9702     0.9492     0.0210
  7 H      0.7036     1.0000     0.2964     0.9694     0.9488     0.0206
  8 Pb    21.2381    22.0000     0.7619     2.3141     1.9472     0.3669
  9 Cl    17.5020    17.0000    -0.5020     1.0721     0.8123     0.2599
 10 Cl    17.5141    17.0000    -0.5141     1.0545     0.7942     0.2603
 11 Cl    17.5112    17.0000    -0.5112     1.0581     0.7977     0.2604

  Mayer bond orders larger than 0.1
B(  0-C ,  1-N ) :   0.8770 B(  0-C ,  2-H ) :   0.9558 B(  0-C ,  3-H ) :   0.9548 
B(  0-C ,  4-H ) :   0.9556 B(  1-N ,  5-H ) :   0.8052 B(  1-N ,  6-H ) :   0.7801 
B(  1-N ,  7-H ) :   0.7824 B(  5-H , 11-Cl) :   0.1412 B(  6-H ,  9-Cl) :   0.1803 
B(  7-H , 10-Cl) :   0.1710 B(  8-Pb,  9-Cl) :   0.6396 B(  8-Pb, 10-Cl) :   0.6207 
B(  8-Pb, 11-Cl) :   0.6581 


                *******************************************
                * RELAXED MP2 DENSITY POPULATION ANALYSIS *
                *******************************************

------------------------------------------------------------------------------
                           ORCA POPULATION ANALYSIS
------------------------------------------------------------------------------
Input electron density              ... PbMACl3_mp2_md2_22.orca.pmp2re
BaseName (.gbw .S,...)              ... PbMACl3_mp2_md2_22.orca

                    ********************************
                    * MULLIKEN POPULATION ANALYSIS *
                    ********************************

-----------------------
MULLIKEN ATOMIC CHARGES
-----------------------
   0 C :   -0.284313
   1 N :   -0.323484
   2 H :    0.164299
   3 H :    0.163329
   4 H :    0.163480
   5 H :    0.285457
   6 H :    0.286159
   7 H :    0.289625
   8 Pb:    0.709789
   9 Cl:   -0.477922
  10 Cl:   -0.489676
  11 Cl:   -0.486742
Sum of atomic charges:    0.0000000

--------------------------------
MULLIKEN REDUCED ORBITAL CHARGES
--------------------------------
  0 C s       :     3.282567  s :     3.282567
      pz      :     0.983111  p :     2.921302
      px      :     0.996295
      py      :     0.941895
      dz2     :     0.009110  d :     0.073304
      dxz     :     0.018373
      dyz     :     0.017826
      dx2y2   :     0.009862
      dxy     :     0.018133
      f0      :     0.000500  f :     0.007140
      f+1     :     0.000675
      f-1     :     0.000902
      f+2     :     0.000939
      f-2     :     0.002685
      f+3     :     0.000669
      f-3     :     0.000771
  1 N s       :     3.427380  s :     3.427380
      pz      :     1.280792  p :     3.836607
      px      :     1.286867
      py      :     1.268948
      dz2     :     0.007868  d :     0.056364
      dxz     :     0.014067
      dyz     :     0.012835
      dx2y2   :     0.008392
      dxy     :     0.013201
      f0      :     0.000252  f :     0.003133
      f+1     :     0.000311
      f-1     :     0.000350
      f+2     :     0.000370
      f-2     :     0.001226
      f+3     :     0.000304
      f-3     :     0.000321
  2 H s       :     0.813298  s :     0.813298
      pz      :     0.008434  p :     0.022403
      px      :     0.007970
      py      :     0.005999
  3 H s       :     0.814308  s :     0.814308
      pz      :     0.007166  p :     0.022363
      px      :     0.007524
      py      :     0.007673
  4 H s       :     0.814126  s :     0.814126
      pz      :     0.007013  p :     0.022394
      px      :     0.007630
      py      :     0.007752
  5 H s       :     0.672990  s :     0.672990
      pz      :     0.010055  p :     0.041553
      px      :     0.014838
      py      :     0.016660
  6 H s       :     0.667282  s :     0.667282
      pz      :     0.015646  p :     0.046560
      px      :     0.012166
      py      :     0.018747
  7 H s       :     0.663787  s :     0.663787
      pz      :     0.019793  p :     0.046588
      px      :     0.017967
      py      :     0.008828
  8 Pbs       :     3.924969  s :     3.924969
      pz      :     2.389794  p :     7.129666
      px      :     2.366340
      py      :     2.373532
      dz2     :     2.023775  d :    10.127848
      dxz     :     2.028510
      dyz     :     2.026148
      dx2y2   :     2.021378
      dxy     :     2.028037
      f0      :     0.019834  f :     0.107728
      f+1     :     0.016016
      f-1     :     0.015330
      f+2     :     0.013092
      f-2     :     0.008072
      f+3     :     0.017859
      f-3     :     0.017525
  9 Cls       :     5.948945  s :     5.948945
      pz      :     3.897232  p :    11.462490
      px      :     3.696365
      py      :     3.868893
      dz2     :     0.010950  d :     0.062643
      dxz     :     0.011827
      dyz     :     0.010393
      dx2y2   :     0.017152
      dxy     :     0.012321
      f0      :     0.000500  f :     0.003844
      f+1     :     0.000599
      f-1     :     0.000427
      f+2     :     0.000547
      f-2     :     0.000467
      f+3     :     0.000729
      f-3     :     0.000574
 10 Cls       :     5.948995  s :     5.948995
      pz      :     3.879031  p :    11.475105
      px      :     3.877906
      py      :     3.718168
      dz2     :     0.011537  d :     0.061806
      dxz     :     0.011754
      dyz     :     0.011194
      dx2y2   :     0.015548
      dxy     :     0.011773
      f0      :     0.000468  f :     0.003770
      f+1     :     0.000520
      f-1     :     0.000541
      f+2     :     0.000570
      f-2     :     0.000461
      f+3     :     0.000603
      f-3     :     0.000607
 11 Cls       :     5.949149  s :     5.949149
      pz      :     3.709433  p :    11.473898
      px      :     3.890190
      py      :     3.874275
      dz2     :     0.018078  d :     0.060005
      dxz     :     0.011659
      dyz     :     0.011269
      dx2y2   :     0.008750
      dxy     :     0.010249
      f0      :     0.000769  f :     0.003691
      f+1     :     0.000628
      f-1     :     0.000574
      f+2     :     0.000428
      f-2     :     0.000450
      f+3     :     0.000439
      f-3     :     0.000402


                     *******************************
                     * LOEWDIN POPULATION ANALYSIS *
                     *******************************

----------------------
LOEWDIN ATOMIC CHARGES
----------------------
   0 C :   -0.287310
   1 N :    0.061745
   2 H :    0.128608
   3 H :    0.128162
   4 H :    0.128579
   5 H :    0.165868
   6 H :    0.142232
   7 H :    0.143151
   8 Pb:   -0.138441
   9 Cl:   -0.144876
  10 Cl:   -0.160944
  11 Cl:   -0.166775

-------------------------------
LOEWDIN REDUCED ORBITAL CHARGES
-------------------------------
  0 C s       :     2.853720  s :     2.853720
      pz      :     1.034307  p :     3.086309
      px      :     1.044260
      py      :     1.007742
      dz2     :     0.031323  d :     0.308627
      dxz     :     0.079604
      dyz     :     0.081821
      dx2y2   :     0.034854
      dxy     :     0.081025
      f0      :     0.005470  f :     0.038653
      f+1     :     0.004146
      f-1     :     0.005957
      f+2     :     0.004572
      f-2     :     0.007366
      f+3     :     0.005124
      f-3     :     0.006018
  1 N s       :     3.002363  s :     3.002363
      pz      :     1.250536  p :     3.753572
      px      :     1.253972
      py      :     1.249064
      dz2     :     0.019575  d :     0.171365
      dxz     :     0.044414
      dyz     :     0.042864
      dx2y2   :     0.021246
      dxy     :     0.043267
      f0      :     0.001645  f :     0.010956
      f+1     :     0.001311
      f-1     :     0.001594
      f+2     :     0.001207
      f-2     :     0.002074
      f+3     :     0.001436
      f-3     :     0.001689
  2 H s       :     0.807192  s :     0.807192
      pz      :     0.023478  p :     0.064201
      px      :     0.022336
      py      :     0.018386
  3 H s       :     0.807709  s :     0.807709
      pz      :     0.020046  p :     0.064128
      px      :     0.022907
      py      :     0.021176
  4 H s       :     0.807273  s :     0.807273
      pz      :     0.021420  p :     0.064148
      px      :     0.021369
      py      :     0.021359
  5 H s       :     0.708463  s :     0.708463
      pz      :     0.033350  p :     0.125669
      px      :     0.043884
      py      :     0.048435
  6 H s       :     0.712863  s :     0.712863
      pz      :     0.047356  p :     0.144905
      px      :     0.040665
      py      :     0.056884
  7 H s       :     0.711852  s :     0.711852
      pz      :     0.060802  p :     0.144997
      px      :     0.055297
      py      :     0.028898
  8 Pbs       :     3.685724  s :     3.685724
      pz      :     2.539471  p :     7.572055
      px      :     2.518960
      py      :     2.513624
      dz2     :     2.154125  d :    10.625606
      dxz     :     2.104778
      dyz     :     2.101290
      dx2y2   :     2.157555
      dxy     :     2.107858
      f0      :     0.050240  f :     0.255056
      f+1     :     0.041537
      f-1     :     0.034355
      f+2     :     0.025250
      f-2     :     0.013950
      f+3     :     0.050690
      f-3     :     0.039034
  9 Cls       :     5.727080  s :     5.727080
      pz      :     3.839607  p :    11.327868
      px      :     3.677764
      py      :     3.810497
      dz2     :     0.015525  d :     0.084391
      dxz     :     0.012064
      dyz     :     0.012338
      dx2y2   :     0.032128
      dxy     :     0.012336
      f0      :     0.000551  f :     0.005537
      f+1     :     0.001073
      f-1     :     0.000463
      f+2     :     0.000703
      f-2     :     0.000526
      f+3     :     0.001561
      f-3     :     0.000659
 10 Cls       :     5.734344  s :     5.734344
      pz      :     3.817538  p :    11.338573
      px      :     3.819209
      py      :     3.701826
      dz2     :     0.016141  d :     0.082678
      dxz     :     0.013890
      dyz     :     0.011785
      dx2y2   :     0.027222
      dxy     :     0.013640
      f0      :     0.000523  f :     0.005350
      f+1     :     0.000692
      f-1     :     0.000904
      f+2     :     0.000778
      f-2     :     0.000481
      f+3     :     0.000906
      f-3     :     0.001066
 11 Cls       :     5.737305  s :     5.737305
      pz      :     3.690758  p :    11.345742
      px      :     3.835905
      py      :     3.819080
      dz2     :     0.034217  d :     0.078632
      dxz     :     0.012953
      dyz     :     0.011505
      dx2y2   :     0.008749
      dxy     :     0.011209
      f0      :     0.001664  f :     0.005095
      f+1     :     0.000902
      f-1     :     0.000721
      f+2     :     0.000431
      f-2     :     0.000460
      f+3     :     0.000505
      f-3     :     0.000411


                      *****************************
                      * MAYER POPULATION ANALYSIS *
                      *****************************

  NA   - Mulliken gross atomic population
  ZA   - Total nuclear charge
  QA   - Mulliken gross atomic charge
  VA   - Mayer's total valence
  BVA  - Mayer's bonded valence
  FA   - Mayer's free valence

  ATOM       NA         ZA         QA         VA         BVA        FA
  0 C      6.2843     6.0000    -0.2843     3.8899     3.7751     0.1147
  1 N      7.3235     7.0000    -0.3235     3.3621     3.2161     0.1460
  2 H      0.8357     1.0000     0.1643     0.9645     0.9461     0.0184
  3 H      0.8367     1.0000     0.1633     0.9632     0.9449     0.0184
  4 H      0.8365     1.0000     0.1635     0.9649     0.9465     0.0183
  5 H      0.7145     1.0000     0.2855     0.9720     0.9512     0.0208
  6 H      0.7138     1.0000     0.2862     0.9754     0.9545     0.0209
  7 H      0.7104     1.0000     0.2896     0.9754     0.9549     0.0205
  8 Pb    21.2902    22.0000     0.7098     2.3927     2.0311     0.3616
  9 Cl    17.4779    17.0000    -0.4779     1.1155     0.8570     0.2585
 10 Cl    17.4897    17.0000    -0.4897     1.0984     0.8394     0.2590
 11 Cl    17.4867    17.0000    -0.4867     1.1016     0.8426     0.2590

  Mayer bond orders larger than 0.1
B(  0-C ,  1-N ) :   0.8852 B(  0-C ,  2-H ) :   0.9530 B(  0-C ,  3-H ) :   0.9520 
B(  0-C ,  4-H ) :   0.9529 B(  1-N ,  5-H ) :   0.8015 B(  1-N ,  6-H ) :   0.7756 
B(  1-N ,  7-H ) :   0.7785 B(  5-H , 11-Cl) :   0.1513 B(  6-H ,  9-Cl) :   0.1909 
B(  7-H , 10-Cl) :   0.1815 B(  8-Pb,  9-Cl) :   0.6652 B(  8-Pb, 10-Cl) :   0.6470 
B(  8-Pb, 11-Cl) :   0.6857 


-------
TIMINGS
-------

Total time                :  524.626 sec
Integral trafo            :    2.586 sec (  0.5%)
I/O of integrals          :    0.105 sec (  0.0%)
K(i,j) Operators          :    8.342 sec (  1.6%)
T(i,j) pair energies      :    1.112 sec (  0.2%)
V-calculation             :    0.018 sec (  0.0%)
V**(-1/2)                 :    0.044 sec (  0.0%)
Gamma(ia|P)               :    8.127 sec (  1.5%)
Gamma-Trafo               :    1.092 sec (  0.2%)
D(virtual)                :    3.653 sec (  0.7%)
D(internal)               :    3.463 sec (  0.7%)
W(virtual)                :    7.303 sec (  1.4%)
W(internal)               :   12.251 sec (  2.3%)
L(virtual)                :    5.181 sec (  1.0%)
L(internal)               :    0.168 sec (  0.0%)
G(D)                      :   15.418 sec (  2.9%)
G(Z)                      :   15.636 sec (  3.0%)
Z-Vector Solution         :  311.895 sec ( 59.5%)
Z-Vector Solution         :  311.895 sec ( 59.5%)
3-Index Derivative 
+ Separable RIJ part      :    4.621 sec (  0.9%)
2-Index Derivative 
+ Separable RIJ part      :    0.035 sec (  0.0%)
Separable Gradient (COSX) :  120.733 sec ( 23.0%)


---------------------------------------
MP2 TOTAL ENERGY:    -1669.603529755 Eh
---------------------------------------

The final MP2 gradient
  0:  -0.00061424   0.00089402  -0.00069597
  1:   0.00283025  -0.00374082  -0.01243235
  2:   0.00250680  -0.00223913   0.00305703
  3:  -0.00271339   0.00261101   0.00262383
  4:   0.00281332   0.00306178  -0.00227049
  5:  -0.00748796  -0.00673511  -0.00177296
  6:  -0.00904334  -0.00489548  -0.00691586
  7:  -0.00266850  -0.00718078  -0.00380959
  8:   0.03411155   0.04310077   0.03798441
  9:  -0.02371224  -0.00129183  -0.00091742
 10:   0.00406569  -0.02047444   0.00313559
 11:   0.00030369  -0.00333009  -0.01783098

-----------------------------------
NORM OF THE MP2 GRADIENT:  0.079858
-----------------------------------

Entering the calculation of the dispersion correction...

Checking the input atom types...

Done


-------------------------------------------------------------------------------
                          DFT DISPERSION CORRECTION                            
                                                                               
                                DFTD3 V2.1  Rev 6                               
                          USING Becke-Johnson damping                          
-------------------------------------------------------------------------------
The B2PLYP functional is recognized
Active option DFTDOPT                   ...         4   

molecular C6(AA) [au] = 4844.183130 


            DFT-D V3
 parameters
 s6 scaling factor         :     0.6400 
 a1 scaling factor         :     0.3065 
 s8 scaling factor         :     0.9147 
 a2 scaling factor         :     5.0570 
 ad hoc parameters k1-k3   :    16.0000     1.3333    -4.0000 

 Edisp/kcal,au: -8.999564658656  -0.014341717648 
 E6   /kcal   :  -4.126566511 
 E8   /kcal   :  -4.872998147 
 % E8         :  54.147043020 

-------------------------   ----------------
Dispersion correction           -0.014341718
-------------------------   ----------------


-------------------------   --------------------
FINAL SINGLE POINT ENERGY     -1669.617871473052
-------------------------   --------------------


                            ***************************************
                            *     ORCA property calculations      *
                            ***************************************


  WARNING: The energy has been calculated at the MP2 level but the densities
           used in the property calculations are still SCF densities
           MP2 response densities have not been calculated 
           use %mp2 Density relaxed end
           or  %mp2 Density unrelaxed end

                                    ---------------------
                                    Active property flags
                                    ---------------------
   (+) Dipole Moment


------------------------------------------------------------------------------
                       ORCA ELECTRIC PROPERTIES CALCULATION
------------------------------------------------------------------------------

Dipole Moment Calculation                       ... on
Quadrupole Moment Calculation                   ... off
Polarizability Calculation                      ... off
GBWName                                         ... PbMACl3_mp2_md2_22.orca.gbw
Electron density file                           ... PbMACl3_mp2_md2_22.orca.scfp.tmp

-------------
DIPOLE MOMENT
-------------
                                X             Y             Z
Electronic contribution:    -52.09560     -74.18569     -70.26757
Nuclear contribution   :     52.96959      75.40608      71.10702
                        -----------------------------------------
Total Dipole Moment    :      0.87399       1.22039       0.83944
                        -----------------------------------------
Magnitude (a.u.)       :      1.71984
Magnitude (Debye)      :      4.37150


                         *** MP2 UNRELAXED DENSITY ***

------------------------------------------------------------------------------
                       ORCA ELECTRIC PROPERTIES CALCULATION
------------------------------------------------------------------------------

Dipole Moment Calculation                       ... on
Quadrupole Moment Calculation                   ... off
Polarizability Calculation                      ... off
GBWName                                         ... PbMACl3_mp2_md2_22.orca.gbw
Electron density file                           ... PbMACl3_mp2_md2_22.orca.pmp2ur

-------------
DIPOLE MOMENT
-------------
                                X             Y             Z
Electronic contribution:    -52.09492     -74.18497     -70.26377
Nuclear contribution   :     52.96959      75.40608      71.10702
                        -----------------------------------------
Total Dipole Moment    :      0.87467       1.22111       0.84325
                        -----------------------------------------
Magnitude (a.u.)       :      1.72257
Magnitude (Debye)      :      4.37841


                           *** MP2 RELAXED DENSITY ***

------------------------------------------------------------------------------
                       ORCA ELECTRIC PROPERTIES CALCULATION
------------------------------------------------------------------------------

Dipole Moment Calculation                       ... on
Quadrupole Moment Calculation                   ... off
Polarizability Calculation                      ... off
GBWName                                         ... PbMACl3_mp2_md2_22.orca.gbw
Electron density file                           ... PbMACl3_mp2_md2_22.orca.pmp2re

-------------
DIPOLE MOMENT
-------------
                                X             Y             Z
Electronic contribution:    -52.12487     -74.22675     -70.29597
Nuclear contribution   :     52.96959      75.40608      71.10702
                        -----------------------------------------
Total Dipole Moment    :      0.84472       1.17933       0.81104
                        -----------------------------------------
Magnitude (a.u.)       :      1.66197
Magnitude (Debye)      :      4.22440


Timings for individual modules:

Sum of individual times         ...      843.368 sec (=  14.056 min)
GTO integral calculation        ...        2.518 sec (=   0.042 min)   0.3 %
SCF iterations                  ...      315.004 sec (=   5.250 min)  37.4 %
MP2 module                      ...      525.847 sec (=   8.764 min)  62.4 %
                             ****ORCA TERMINATED NORMALLY****
TOTAL RUN TIME: 0 days 0 hours 14 minutes 5 seconds 114 msec
