
                                 *****************
                                 * O   R   C   A *
                                 *****************

           --- An Ab Initio, DFT and Semiempirical electronic structure package ---

                  #######################################################
                  #                        -***-                        #
                  #  Department of molecular theory and spectroscopy    #
                  #              Directorship: Frank Neese              #
                  # Max Planck Institute for Chemical Energy Conversion #
                  #                  D-45470 Muelheim/Ruhr              #
                  #                       Germany                       #
                  #                                                     #
                  #                  All rights reserved                #
                  #                        -***-                        #
                  #######################################################


                         Program Version 3.0.3 - RELEASE   -


 With contributions from (in alphabetic order):
   Ute Becker             : Parallelization
   Dmytro Bykov           : SCF Hessian
   Dmitry Ganyushin       : Spin-Orbit,Spin-Spin,Magnetic field MRCI
   Andreas Hansen         : Spin unrestricted coupled pair/coupled cluster methods
   Dimitrios Liakos       : Extrapolation schemes; parallel MDCI
   Robert Izsak           : Overlap fitted RIJCOSX, COSX-SCS-MP3
   Christian Kollmar      : KDIIS, OOCD, Brueckner-CCSD(T), CCSD density
   Simone Kossmann        : Meta GGA functionals, TD-DFT gradient, OOMP2, MP2 Hessian
   Taras Petrenko         : DFT Hessian,TD-DFT gradient, ASA and ECA modules, normal mode analysis, Resonance Raman, ABS, FL, XAS/XES, NRVS
   Christoph Reimann      : Effective Core Potentials
   Michael Roemelt        : Restricted open shell CIS
   Christoph Riplinger    : Improved optimizer, TS searches, QM/MM, DLPNO-CCSD
   Barbara Sandhoefer     : DKH picture change effects
   Igor Schapiro          : Molecular dynamics
   Kantharuban Sivalingam : CASSCF convergence, NEVPT2
   Boris Wezisla          : Elementary symmetry handling
   Frank Wennmohs         : Technical directorship


 We gratefully acknowledge several colleagues who have allowed us to
 interface, adapt or use parts of their codes:
   Stefan Grimme, W. Hujo, H. Kruse, T. Risthaus : VdW corrections, initial TS optimization,
                                                   DFT functionals, gCP
   Ed Valeev                                     : LibInt (2-el integral package), F12 methods
   Garnet Chan, S. Sharma, R. Olivares           : DMRG
   Ulf Ekstrom                                   : XCFun DFT Library
   Mihaly Kallay                                 : mrcc  (arbitrary order and MRCC methods)
   Andreas Klamt, Michael Diedenhofen            : otool_cosmo (COSMO solvation model)
   Frank Weinhold                                : gennbo (NPA and NBO analysis)
   Christopher J. Cramer and Donald G. Truhlar   : smd solvation model


 Your calculation uses the libint2 library for the computation of 2-el integrals
 For citations please refer to: http://libint.valeyev.net

 This ORCA versions uses:
   CBLAS   interface :  Fast vector & matrix operations
   LAPACKE interface :  Fast linear algebra routines
   SCALAPACK package :  Parallel linear algebra routines


Your calculation utilizes the basis: Ahlrichs-TZV
Cite in your paper:
H - Kr: A. Schaefer, H. Horn and R. Ahlrichs, J. Chem. Phys. 97, 2571 (1992).

The def2-TZV basis will be loaded
Cite in your paper:
 	F. Weigend, R. Ahlrichs, Phys. Chem. Chem. Phys. 2005, 7, 3297.

Your calculation utilizes the atom-pairwise dispersion correction
with the Becke-Johnson damping scheme (D3BJ)
Cite in your paper:
S.Grimme, S.Ehrlich, L.Goerigk, J Comput Chem, (2011), 32, 1456–1465 
S.Grimme, J.Antony, S.Ehrlich and H.Krieg, J.Chem.Phys., 132, (2010), 154104 
   

================================================================================
                                        WARNINGS
                       Please study these warnings very carefully!
================================================================================

WARNING: The RI method has been chosen with no auxiliary basis (AUX or GTOAUX in BASIS block)
        Standard TZV/J expansion basis used (GTOAUX=TZV_J)

Now building the actual basis set
cite the ECPs for Pb [SD(60,MDF)] as follows:
  B. Metz, H. Stoll, M. Dolg, J. Chem. Phys. 113, 2563 (2000).

ECP parameters for Pb [SD(60,MDF)] have been obtained from:
  pseudopotential library of the Stuttgart/Cologne group
  http://www.theochem.uni-stuttgart.de/pseudopotentials/

cite the ECP basis sets for Pb [DEF2-TZVP] as follows:
  F. Weigend, R. Ahlrichs; Phys. Chem. Chem. Phys. 7, 3297(2005).

ECP basis sets for Pb [DEF2-TZVP] have been obtained from:
  Turbomole basis set library
  ftp://ftp.chemie.uni-karlsruhe.de/pub/basen/



INFO   : the flag for use of LIBINT has been found!

================================================================================
                                       INPUT FILE
================================================================================
NAME = PbMACl3_mp2_md2_20.orca
|  1> ! RIJCOSX RI-B2PLYP D3BJ def2-TZVP ECP{def2-TZVP} TIGHTSCF Grid5 FinalGrid6 SlowConv MORead
|  2> %method
|  3>  RunTyp Gradient
|  4>  end
|  5> %maxcore 1000
|  6> %moinp "previous.gbw"
|  7> *xyz 0 1
|  8> C -0.394281 0.276013 -0.426662 
|  9> N -1.165380 -0.685592 -1.253010 
| 10> H 0.248796 -0.278576 0.260517 
| 11> H -1.090820 0.897444 0.140826 
| 12> H 0.215705 0.904875 -1.079130 
| 13> H -1.783150 -1.324970 -0.698370 
| 14> H -0.582260 -1.326300 -1.835140 
| 15> H -1.813140 -0.240924 -1.938260 
| 16> Pb -2.600620 -2.587420 -3.084480 
| 17> Cl -0.260571 -1.950850 -3.706950 
| 18> Cl -3.633060 -0.297755 -2.753490 
| 19> Cl -2.283610 -3.478800 -0.793359 
| 20> *
| 21> 
| 22>                          ****END OF INPUT****
================================================================================

                     *******************************
                     * Energy+Gradient Calculation *
                     *******************************

---------------------------------
CARTESIAN COORDINATES (ANGSTROEM)
---------------------------------
  C     -0.394281    0.276013   -0.426662
  N     -1.165380   -0.685592   -1.253010
  H      0.248796   -0.278576    0.260517
  H     -1.090820    0.897444    0.140826
  H      0.215705    0.904875   -1.079130
  H     -1.783150   -1.324970   -0.698370
  H     -0.582260   -1.326300   -1.835140
  H     -1.813140   -0.240924   -1.938260
  Pb    -2.600620   -2.587420   -3.084480
  Cl    -0.260571   -1.950850   -3.706950
  Cl    -3.633060   -0.297755   -2.753490
  Cl    -2.283610   -3.478800   -0.793359

----------------------------
CARTESIAN COORDINATES (A.U.)
----------------------------
  NO LB      ZA    FRAG    MASS        X           Y           Z
   0 C     6.0000    0    12.011         -0.745083109808605          0.521588979402006         -0.806274331751109
   1 N     7.0000    0    14.007         -2.202249041949148         -1.295581119607339         -2.367845743064668
   2 H     1.0000    0     1.008          0.470156303215072         -0.526432347483247          0.492305783230763
   3 H     1.0000    0     1.008         -2.061351061403979          1.695923380530824          0.266122572535594
   4 H     1.0000    0     1.008          0.407623375717484          1.709965935431992         -2.039260162898440
   5 H     1.0000    0     1.008         -3.369665155701680         -2.503830435661641         -1.319728040146585
   6 H     1.0000    0     1.008         -1.100311938736988         -2.506343771419756         -3.467912017404246
   7 H     1.0000    0     1.008         -3.426338042457978         -0.455280379088844         -3.662780576334205
   8 Pb   22.0000*   0   207.200  -4.914459578398286  -4.889515193430524  -5.828822465557423
   9 Cl   17.0000    0    35.453         -0.492407828441994         -3.686572228360274         -7.005120292139384
  10 Cl   17.0000    0    35.453         -6.865488428103943         -0.562675405005722         -5.203342012490828
  11 Cl   17.0000    0    35.453         -4.315397496683909         -6.573979274685250         -1.499231235881630
* core charge reduced due to ECP

--------------------------------
INTERNAL COORDINATES (ANGSTROEM)
--------------------------------
 C      0   0   0   0.000000     0.000     0.000
 N      1   0   0   1.483957     0.000     0.000
 H      1   2   0   1.092397   109.099     0.000
 H      1   2   3   1.092422   109.061   240.173
 H      1   2   3   1.092367   109.305   120.114
 H      2   1   3   1.047888   114.015    60.210
 H      2   1   3   1.043749   114.711   299.789
 H      2   1   3   1.042540   114.361   179.708
 Pb     7   2   1   2.687946    97.338   183.136
 Cl     7   2   1   1.999305   143.496   235.752
 Cl     8   2   1   1.994978   145.412   222.632
 Cl     6   2   1   2.213248   134.779   221.537

---------------------------
INTERNAL COORDINATES (A.U.)
---------------------------
 C      0   0   0   0.000000     0.000     0.000
 N      1   0   0   2.804273     0.000     0.000
 H      1   2   0   2.064332   109.099     0.000
 H      1   2   3   2.064378   109.061   240.173
 H      1   2   3   2.064274   109.305   120.114
 H      2   1   3   1.980222   114.015    60.210
 H      2   1   3   1.972399   114.711   299.789
 H      2   1   3   1.970116   114.361   179.708
 Pb     7   2   1   5.079481    97.338   183.136
 Cl     7   2   1   3.778138   143.496   235.752
 Cl     8   2   1   3.769963   145.412   222.632
 Cl     6   2   1   4.182433   134.779   221.537

---------------------
BASIS SET INFORMATION
---------------------
There are 5 groups of distinct atoms

 Group   1 Type C   : 11s6p2d1f contracted to 5s3p2d1f pattern {62111/411/11/1}
 Group   2 Type N   : 11s6p2d1f contracted to 5s3p2d1f pattern {62111/411/11/1}
 Group   3 Type H   : 5s1p contracted to 3s1p pattern {311/1}
 Group   4 Type Pb  : 10s9p8d2f contracted to 6s5p3d2f pattern {421111/33111/611/11}
 Group   5 Type Cl  : 14s9p3d1f contracted to 5s5p2d1f pattern {73211/51111/21/1}

Atom   0C    basis set group =>   1
Atom   1N    basis set group =>   2
Atom   2H    basis set group =>   3
Atom   3H    basis set group =>   3
Atom   4H    basis set group =>   3
Atom   5H    basis set group =>   3
Atom   6H    basis set group =>   3
Atom   7H    basis set group =>   3
Atom   8Pb   basis set group =>   4
Atom   9Cl   basis set group =>   5
Atom  10Cl   basis set group =>   5
Atom  11Cl   basis set group =>   5
-------------------------------
AUXILIARY BASIS SET INFORMATION
-------------------------------
There are 5 groups of distinct atoms

 Group   1 Type C   : 12s5p4d2f1g contracted to 6s4p3d1f1g pattern {711111/2111/211/2/1}
 Group   2 Type N   : 12s5p4d2f1g contracted to 6s4p3d1f1g pattern {711111/2111/211/2/1}
 Group   3 Type H   : 5s2p1d contracted to 3s1p1d pattern {311/2/1}
 Group   4 Type Pb  : 31s12p8d6f3g contracted to 31s12p8d6f3g pattern {1111111111111111111111111111111/111111111111/11111111/111111/111}
 Group   5 Type Cl  : 14s5p5d2f1g contracted to 8s4p3d1f1g pattern {71111111/2111/311/2/1}

Atom   0C    basis set group =>   1
Atom   1N    basis set group =>   2
Atom   2H    basis set group =>   3
Atom   3H    basis set group =>   3
Atom   4H    basis set group =>   3
Atom   5H    basis set group =>   3
Atom   6H    basis set group =>   3
Atom   7H    basis set group =>   3
Atom   8Pb   basis set group =>   4
Atom   9Cl   basis set group =>   5
Atom  10Cl   basis set group =>   5
Atom  11Cl   basis set group =>   5

-------------------------
ECP PARAMETER INFORMATION
-------------------------

 Group 1, Type Pb ECP SD(60,MDF) (replacing 60 core electrons, lmax=5)

Atom   8Pb   ECP group =>   1


------------------------------------------------------------------------------
                           ORCA GTO INTEGRAL CALCULATION
                           -- RI-GTO INTEGRALS CHOSEN --
------------------------------------------------------------------------------

                         BASIS SET STATISTICS AND STARTUP INFO

Gaussian basis set:
 # of primitive gaussian shells          ...  186
 # of primitive gaussian functions       ...  420
 # of contracted shells                  ...  101
 # of contracted basis functions         ...  259
 Highest angular momentum                ...    3
 Maximum contraction depth               ...    7
Auxiliary gaussian basis set:
 # of primitive gaussian shells          ...  237
 # of primitive gaussian functions       ...  643
 # of contracted shells                  ...  171
 # of contracted aux-basis functions     ...  493
 Highest angular momentum                ...    4
 Maximum contraction depth               ...    7
Ratio of auxiliary to basis functions    ...  1.90
Integral package used                  ... LIBINT
 One Electron integrals                  
   ECP integrals                         ... done
 Ordering auxiliary basis shells         ... done
 Integral threshhold             Thresh  ...  2.500e-11
 Primitive cut-off               TCut    ...  2.500e-12
 Pre-screening matrix                    ... done
 Shell pair data                         ... 
 Ordering of the shell pairs             ... done (   0.001 sec) 4509 of 5151 pairs
 Determination of significant pairs      ... done (   0.000 sec)
 Creation of shell pair data             ... done (   0.002 sec)
 Storage of shell pair data              ... done (   0.001 sec)
 Shell pair data done in (   0.003 sec)
 Computing two index integrals           ... done
 Cholesky decomposition of the V-matrix  ... done


Timings:
 Total evaluation time                   ...   0.547 sec (  0.009 min)
 One electron matrix time                ...   0.299 sec (  0.005 min) = 54.6%
 Schwartz matrix evaluation time         ...   0.203 sec (  0.003 min) = 37.2%
 Two index repulsion integral time       ...   0.008 sec (  0.000 min) =  1.5%
 Cholesky decomposition of V             ...   0.007 sec (  0.000 min) =  1.3%
 Three index repulsion integral time     ...   0.000 sec (  0.000 min) =  0.0%

-------------------------------------------------------------------------------
                                 ORCA SCF
-------------------------------------------------------------------------------

------------
SCF SETTINGS
------------
Hamiltonian:
 Density Functional     Method          .... DFT(GTOs)
 Exchange Functional    Exchange        .... B88
   X-Alpha parameter    XAlpha          ....  0.666667
   Becke's b parameter  XBeta           ....  0.004200
 Correlation Functional Correlation     .... LYP
 LDA part of GGA corr.  LDAOpt          .... VWN-3
 Gradients option       PostSCFGGA      .... off
 Hybrid DFT is turned on
   Fraction HF Exchange ScalHFX         ....  0.530000
   Scaling of DF-GGA-X  ScalDFX         ....  0.470000
   Scaling of DF-GGA-C  ScalDFC         ....  0.730000
   Scaling of DF-LDA-C  ScalLDAC        ....  0.730000
   Perturbative correction              ....  0.270000
 RI-approximation to the Coulomb term is turned on
   Number of auxiliary basis functions  .... 493
   RIJ-COSX (HFX calculated with COS-X)).... on


General Settings:
 Integral files         IntName         .... PbMACl3_mp2_md2_20.orca
 Hartree-Fock type      HFTyp           .... RHF
 Total Charge           Charge          ....    0
 Multiplicity           Mult            ....    1
 Number of Electrons    NEL             ....   92
 Basis Dimension        Dim             ....  259
 Nuclear Repulsion      ENuc            ....    616.9053417340 Eh

Convergence Acceleration:
 DIIS                   CNVDIIS         .... on
   Start iteration      DIISMaxIt       ....     0
   Startup error        DIISStart       ....  0.200000
   # of expansion vecs  DIISMaxEq       ....     5
   Bias factor          DIISBfac        ....   1.050
   Max. coefficient     DIISMaxC        ....  10.000
 Newton-Raphson         CNVNR           .... off
 SOSCF                  CNVSOSCF        .... on
   Start iteration      SOSCFMaxIt      ....   150
   Startup grad/error   SOSCFStart      ....  0.001000
 Level Shifting         CNVShift        .... on
   Level shift para.    LevelShift      ....    0.2500
   Turn off err/grad.   ShiftErr        ....    0.0000
 Zerner damping         CNVZerner       .... off
 Static damping         CNVDamp         .... on
   Fraction old density DampFac         ....    0.8500
   Max. Damping (<1)    DampMax         ....    0.9800
   Min. Damping (>=0)   DampMin         ....    0.0000
   Turn off err/grad.   DampErr         ....    0.0300
 Fernandez-Rico         CNVRico         .... off

SCF Procedure:
 Maximum # iterations   MaxIter         ....   125
 SCF integral mode      SCFMode         .... Direct
   Integral package                     .... LIBINT
 Reset frequeny         DirectResetFreq ....    20
 Integral Threshold     Thresh          ....  2.500e-11 Eh
 Primitive CutOff       TCut            ....  2.500e-12 Eh

Convergence Tolerance:
 Convergence Check Mode ConvCheckMode   .... Total+1el-Energy
 Energy Change          TolE            ....  1.000e-08 Eh
 1-El. energy change                    ....  1.000e-05 Eh
 Orbital Gradient       TolG            ....  1.000e-05
 Orbital Rotation angle TolX            ....  1.000e-05
 DIIS Error             TolErr          ....  5.000e-07


Diagonalization of the overlap matrix:
Smallest eigenvalue                        ... 1.056e-03
Time for diagonalization                   ...    0.016 sec
Threshold for overlap eigenvalues          ... 1.000e-08
Number of eigenvalues below threshold      ... 0
Time for construction of square roots      ...    0.005 sec
Total time needed                          ...    0.021 sec

---------------------
INITIAL GUESS: MOREAD
---------------------
Guess MOs are being read from file: previous.gbw
Input geometry compatible with but different from current geometry
Input basis set matches current basis set (good)
MOs were renormalized
MOs were reorthogonalized (Schmidt)
                      ------------------
                      INITIAL GUESS DONE (   0.1 sec)
                      ------------------
-------------------
DFT GRID GENERATION
-------------------

General Integration Accuracy     IntAcc      ...  5.010
Radial Grid Type                 RadialGrid  ... Gauss-Chebyshev
Angular Grid (max. acc.)         AngularGrid ... Lebedev-434
Angular grid pruning method      GridPruning ... 3 (G Style)
Weight generation scheme         WeightScheme... Becke
Basis function cutoff            BFCut       ...    1.0000e-11
Integration weight cutoff        WCut        ...    1.0000e-14
Grids for H and He will be reduced by one unit

# of grid points (after initial pruning)     ... 115882 (   0.0 sec)
# of grid points (after weights+screening)   ... 108411 (   0.2 sec)
nearest neighbour list constructed           ...    0.0 sec
Grid point re-assignment to atoms done       ...    0.0 sec
Grid point division into batches done        ...    0.9 sec
Reduced shell lists constructed in    3.3 sec

Total number of grid points                  ...   108411
Total number of batches                      ...     1700
Average number of points per batch           ...       63
Average number of grid points per atom       ...     9034
Average number of shells per batch           ...    56.64 (56.08%)
Average number of basis functions per batch  ...   150.28 (58.02%)
Average number of large shells per batch     ...    42.96 (75.85%)
Average number of large basis fcns per batch ...   110.95 (73.83%)
Maximum spatial batch extension              ...  32.76, 35.95, 33.82 au
Average spatial batch extension              ...   2.45,  2.43,  2.41 au

Time for grid setup =    3.589 sec

--------------------
COSX GRID GENERATION
--------------------

General Integration Accuracy     IntAcc      ...  3.340
Radial Grid Type                 RadialGrid  ... Gauss-Chebyshev
Angular Grid (max. acc.)         AngularGrid ... Lebedev-50
Angular grid pruning method      GridPruning ... 3 (G Style)
Weight generation scheme         WeightScheme... Becke
Basis function cutoff            BFCut       ...    1.0000e-11
Integration weight cutoff        WCut        ...    1.0000e-14
Grids for H and He will be reduced by one unit

# of grid points (after initial pruning)     ...   6578 (   0.0 sec)
# of grid points (after weights+screening)   ...   6201 (   0.0 sec)
nearest neighbour list constructed           ...    0.0 sec
Grid point re-assignment to atoms done       ...    0.0 sec
Grid point division into batches done        ...    0.0 sec
Reduced shell lists constructed in    0.2 sec

Total number of grid points                  ...     6201
Total number of batches                      ...      105
Average number of points per batch           ...       59
Average number of grid points per atom       ...      517
Average number of shells per batch           ...    68.39 (67.71%)
Average number of basis functions per batch  ...   184.14 (71.10%)
Average number of large shells per batch     ...    53.69 (78.51%)
Average number of large basis fcns per batch ...   141.29 (76.73%)
Maximum spatial batch extension              ...  40.64, 36.53, 30.11 au
Average spatial batch extension              ...   6.48,  6.38,  6.28 au

Overlap Fitting                  UseSFitting ... on
Constructing numerical overlap ... done (      0.1 sec)
Inverting numerical overlap    ... done (      0.0 sec)
Obtaining analytic overlap     ... done (      0.0 sec)
Final contraction and storage  ... done (      0.0 sec)


General Integration Accuracy     IntAcc      ...  3.670
Radial Grid Type                 RadialGrid  ... Gauss-Chebyshev
Angular Grid (max. acc.)         AngularGrid ... Lebedev-50
Angular grid pruning method      GridPruning ... 3 (G Style)
Weight generation scheme         WeightScheme... Becke
Basis function cutoff            BFCut       ...    1.0000e-11
Integration weight cutoff        WCut        ...    1.0000e-14
Grids for H and He will be reduced by one unit

# of grid points (after initial pruning)     ...   8124 (   0.0 sec)
# of grid points (after weights+screening)   ...   7631 (   0.0 sec)
nearest neighbour list constructed           ...    0.0 sec
Grid point re-assignment to atoms done       ...    0.0 sec
Grid point division into batches done        ...    0.0 sec
Reduced shell lists constructed in    0.2 sec

Total number of grid points                  ...     7631
Total number of batches                      ...      124
Average number of points per batch           ...       61
Average number of grid points per atom       ...      636
Average number of shells per batch           ...    67.45 (66.78%)
Average number of basis functions per batch  ...   181.16 (69.95%)
Average number of large shells per batch     ...    52.78 (78.26%)
Average number of large basis fcns per batch ...   138.22 (76.30%)
Maximum spatial batch extension              ...  42.24, 37.97, 37.37 au
Average spatial batch extension              ...   6.29,  6.02,  6.17 au

Overlap Fitting                  UseSFitting ... on
Constructing numerical overlap ... done (      0.1 sec)
Inverting numerical overlap    ... done (      0.0 sec)
Obtaining analytic overlap     ... done (      0.0 sec)
Final contraction and storage  ... done (      0.0 sec)


General Integration Accuracy     IntAcc      ...  4.010
Radial Grid Type                 RadialGrid  ... Gauss-Chebyshev
Angular Grid (max. acc.)         AngularGrid ... Lebedev-110
Angular grid pruning method      GridPruning ... 3 (G Style)
Weight generation scheme         WeightScheme... Becke
Basis function cutoff            BFCut       ...    1.0000e-11
Integration weight cutoff        WCut        ...    1.0000e-14
Grids for H and He will be reduced by one unit

# of grid points (after initial pruning)     ...  15170 (   0.0 sec)
# of grid points (after weights+screening)   ...  14344 (   0.0 sec)
nearest neighbour list constructed           ...    0.0 sec
Grid point re-assignment to atoms done       ...    0.0 sec
Grid point division into batches done        ...    0.0 sec
Reduced shell lists constructed in    0.4 sec

Total number of grid points                  ...    14344
Total number of batches                      ...      230
Average number of points per batch           ...       62
Average number of grid points per atom       ...     1195
Average number of shells per batch           ...    64.06 (63.42%)
Average number of basis functions per batch  ...   172.20 (66.49%)
Average number of large shells per batch     ...    49.49 (77.26%)
Average number of large basis fcns per batch ...   129.63 (75.28%)
Maximum spatial batch extension              ...  34.29, 31.49, 33.62 au
Average spatial batch extension              ...   5.05,  4.98,  5.04 au

Overlap Fitting                  UseSFitting ... on
Constructing numerical overlap ... done (      0.2 sec)
Inverting numerical overlap    ... done (      0.0 sec)
Obtaining analytic overlap     ... done (      0.0 sec)
Final contraction and storage  ... done (      0.0 sec)

Time for X-Grid setup             =    1.374 sec
--------------
SCF ITERATIONS
--------------
ITER       Energy         Delta-E        Max-DP      RMS-DP      [F,P]     Damp
               ***  Starting incremental Fock matrix formation  ***
  0  -1668.9296279681   0.000000000000 0.00715516  0.00022733  0.3521997 0.8500
  1  -1668.9410019543  -0.011373986221 0.00838352  0.00025644  0.2996697 0.8500
                               ***Turning on DIIS***
  2  -1668.9512184015  -0.010216447216 0.00797924  0.00024062  0.2548180 0.8500
  3  -1668.9599648386  -0.008746437072 0.00930033  0.00022507  0.2166684 0.8500
  4  -1668.9675328969  -0.007568058317 0.01242090  0.00021425  0.1842101 0.8500
  5  -1668.9740618129  -0.006528915996 0.01205252  0.00019670  0.1565982 0.8500
  6  -1668.9797546371  -0.005692824247 0.01059536  0.00017547  0.1331183 0.8500
  7  -1668.9847337650  -0.004979127854 0.00877577  0.00015368  0.1131558 0.8500
  8  -1668.9890861892  -0.004352424238 0.00763004  0.00013401  0.0961858 0.8500
  9  -1668.9928682124  -0.003782023147 0.00683936  0.00011647  0.0817604 0.8500
 10  -1668.9961447314  -0.003276518996 0.00605955  0.00010077  0.0694986 0.8500
 11  -1668.9989788102  -0.002834078844 0.00525006  0.00008683  0.0590759 0.8500
 12  -1669.0014264269  -0.002447616727 0.00448344  0.00007461  0.0502163 0.8500
 13  -1669.0035364660  -0.002110039111 0.00383307  0.00006403  0.0426853 0.8500
 14  -1669.0053519382  -0.001815472186 0.00329918  0.00005493  0.0362836 0.8500
 15  -1669.0069112397  -0.001559301462 0.00284718  0.00004710  0.0308420 0.8500
 16  -1669.0082486247  -0.001337385006 0.01634469  0.00026910  0.0262165 0.0000
                      *** Initiating the SOSCF procedure ***
                           *** Shutting down DIIS ***
                      *** Re-Reading the Fockian *** 
                      *** Removing any level shift *** 
ITER      Energy       Delta-E        Grad      Rot      Max-DP    RMS-DP
 17  -1669.01605167  -0.0078030482  0.000203  0.000203  0.000600  0.000006
               *** Restarting incremental Fock matrix formation ***
 18  -1669.01604905   0.0000026215  0.000117  0.000334  0.000227  0.000005
 19  -1669.01604924  -0.0000001915  0.000036  0.000184  0.000264  0.000003
 20  -1669.01604921   0.0000000352  0.000026  0.000027  0.000121  0.000001
                  ***Gradient check signals convergence***
              ***Rediagonalizing the Fockian in SOSCF/NRSCF***

               *****************************************************
               *                     SUCCESS                       *
               *           SCF CONVERGED AFTER  21 CYCLES          *
               *****************************************************

Old exchange energy                            =    -59.232741651 Eh
New exchange energy                            =    -59.235689844 Eh
Exchange energy change after final integration =     -0.002948194 Eh
Total energy after final integration           =  -1669.018997402 Eh
Final COS-X integration done in                =    19.936 sec

----------------
TOTAL SCF ENERGY
----------------

Total Energy       :        -1669.01899740 Eh          -45416.31584 eV

Components:
Nuclear Repulsion  :          616.90534173 Eh           16786.84778 eV
Electronic Energy  :        -2285.92433914 Eh          -62203.16362 eV

One Electron Energy:        -3603.95177729 Eh          -98068.51357 eV
Two Electron Energy:         1318.02743816 Eh           35865.34995 eV

Virial components:
Potential Energy   :        -3206.98071820 Eh          -87266.38188 eV
Kinetic Energy     :         1537.96172080 Eh           41850.06604 eV
Virial Ratio       :            2.08521491


DFT components:
N(Alpha)           :       46.000027377747 electrons
N(Beta)            :       46.000027377747 electrons
N(Total)           :       92.000054755495 electrons
E(X)               :      -52.602095959641 Eh       
E(C)               :       -2.613858157754 Eh       
E(XC)              :      -55.215954117395 Eh       

---------------
SCF CONVERGENCE
---------------

  Last Energy change         ...   -6.7143e-10  Tolerance :   1.0000e-08
  Last MAX-Density change    ...    8.3711e-14  Tolerance :   1.0000e-07
  Last RMS-Density change    ...    7.1839e-16  Tolerance :   5.0000e-09
  Last Orbital Gradient      ...    2.0450e-06  Tolerance :   1.0000e-05
  Last Orbital Rotation      ...    6.0473e-06  Tolerance :   1.0000e-05

             **** THE GBW FILE WAS UPDATED (PbMACl3_mp2_md2_20.orca.gbw) ****
             **** DENSITY FILE WAS UPDATED (PbMACl3_mp2_md2_20.orca.scfp.tmp) ****
             **** ENERGY FILE WAS UPDATED (PbMACl3_mp2_md2_20.orca.en.tmp) ****
----------------
ORBITAL ENERGIES
----------------

  NO   OCC          E(Eh)            E(eV) 
   0   2.0000    -102.865510     -2799.1128 
   1   2.0000    -102.864856     -2799.0950 
   2   2.0000    -102.863460     -2799.0571 
   3   2.0000     -14.955059      -406.9479 
   4   2.0000     -10.707229      -291.3585 
   5   2.0000      -9.874086      -268.6876 
   6   2.0000      -9.873032      -268.6589 
   7   2.0000      -9.871772      -268.6246 
   8   2.0000      -7.511040      -204.3858 
   9   2.0000      -7.510092      -204.3600 
  10   2.0000      -7.509440      -204.3422 
  11   2.0000      -7.508978      -204.3297 
  12   2.0000      -7.508688      -204.3218 
  13   2.0000      -7.508292      -204.3110 
  14   2.0000      -7.507989      -204.3028 
  15   2.0000      -7.507185      -204.2809 
  16   2.0000      -7.506718      -204.2682 
  17   2.0000      -5.799036      -157.7998 
  18   2.0000      -3.570619       -97.1615 
  19   2.0000      -3.569472       -97.1303 
  20   2.0000      -3.569038       -97.1184 
  21   2.0000      -1.141692       -31.0670 
  22   2.0000      -0.977094       -26.5881 
  23   2.0000      -0.975558       -26.5463 
  24   2.0000      -0.962343       -26.1867 
  25   2.0000      -0.959369       -26.1058 
  26   2.0000      -0.958731       -26.0884 
  27   2.0000      -0.909075       -24.7372 
  28   2.0000      -0.878668       -23.9098 
  29   2.0000      -0.876041       -23.8383 
  30   2.0000      -0.855351       -23.2753 
  31   2.0000      -0.668172       -18.1819 
  32   2.0000      -0.667053       -18.1514 
  33   2.0000      -0.607174       -16.5221 
  34   2.0000      -0.560131       -15.2419 
  35   2.0000      -0.520452       -14.1622 
  36   2.0000      -0.519515       -14.1367 
  37   2.0000      -0.402263       -10.9461 
  38   2.0000      -0.400975       -10.9111 
  39   2.0000      -0.380706       -10.3595 
  40   2.0000      -0.365191        -9.9374 
  41   2.0000      -0.364046        -9.9062 
  42   2.0000      -0.359936        -9.7944 
  43   2.0000      -0.359721        -9.7885 
  44   2.0000      -0.353589        -9.6216 
  45   2.0000      -0.292515        -7.9597 
  46   0.0000      -0.003518        -0.0957 
  47   0.0000       0.027546         0.7496 
  48   0.0000       0.033487         0.9112 
  49   0.0000       0.044043         1.1985 
  50   0.0000       0.091668         2.4944 
  51   0.0000       0.110950         3.0191 
  52   0.0000       0.113623         3.0918 
  53   0.0000       0.116013         3.1569 
  54   0.0000       0.134274         3.6538 
  55   0.0000       0.142050         3.8654 
  56   0.0000       0.150756         4.1023 
  57   0.0000       0.152412         4.1474 
  58   0.0000       0.179649         4.8885 
  59   0.0000       0.220400         5.9974 
  60   0.0000       0.225321         6.1313 
  61   0.0000       0.265340         7.2203 
  62   0.0000       0.272021         7.4021 
  63   0.0000       0.272732         7.4214 
  64   0.0000       0.280484         7.6324 
  65   0.0000       0.281920         7.6714 
  66   0.0000       0.285554         7.7703 
  67   0.0000       0.328228         8.9315 
  68   0.0000       0.334807         9.1106 
  69   0.0000       0.351872         9.5749 
  70   0.0000       0.396003        10.7758 
  71   0.0000       0.405341        11.0299 
  72   0.0000       0.414683        11.2841 
  73   0.0000       0.419886        11.4257 
  74   0.0000       0.429294        11.6817 
  75   0.0000       0.433897        11.8069 
  76   0.0000       0.437560        11.9066 
  77   0.0000       0.443569        12.0701 
  78   0.0000       0.446415        12.1476 
  79   0.0000       0.450509        12.2590 
  80   0.0000       0.479507        13.0480 
  81   0.0000       0.483244        13.1497 
  82   0.0000       0.485371        13.2076 
  83   0.0000       0.515603        14.0303 
  84   0.0000       0.521728        14.1969 
  85   0.0000       0.523589        14.2476 
  86   0.0000       0.525881        14.3099 
  87   0.0000       0.548422        14.9233 
  88   0.0000       0.554910        15.0999 
  89   0.0000       0.558128        15.1874 
  90   0.0000       0.576476        15.6867 
  91   0.0000       0.584485        15.9046 
  92   0.0000       0.591567        16.0974 
  93   0.0000       0.613370        16.6907 
  94   0.0000       0.626654        17.0521 
  95   0.0000       0.630771        17.1642 
  96   0.0000       0.641235        17.4489 
  97   0.0000       0.648062        17.6347 
  98   0.0000       0.686020        18.6676 
  99   0.0000       0.696657        18.9570 
 100   0.0000       0.712350        19.3840 
 101   0.0000       0.732981        19.9454 
 102   0.0000       0.760885        20.7047 
 103   0.0000       0.807220        21.9656 
 104   0.0000       0.814915        22.1750 
 105   0.0000       0.867223        23.5983 
 106   0.0000       0.874487        23.7960 
 107   0.0000       0.878842        23.9145 
 108   0.0000       0.894176        24.3318 
 109   0.0000       0.898869        24.4595 
 110   0.0000       0.907270        24.6881 
 111   0.0000       0.917791        24.9744 
 112   0.0000       0.919901        25.0318 
 113   0.0000       0.960747        26.1433 
 114   0.0000       0.979150        26.6440 
 115   0.0000       0.987664        26.8757 
 116   0.0000       1.011732        27.5306 
 117   0.0000       1.067465        29.0472 
 118   0.0000       1.069215        29.0948 
 119   0.0000       1.090511        29.6743 
 120   0.0000       1.098806        29.9000 
 121   0.0000       1.100532        29.9470 
 122   0.0000       1.120225        30.4829 
 123   0.0000       1.230259        33.4770 
 124   0.0000       1.236006        33.6334 
 125   0.0000       1.287151        35.0252 
 126   0.0000       1.313096        35.7312 
 127   0.0000       1.327536        36.1241 
 128   0.0000       1.386802        37.7368 
 129   0.0000       1.407242        38.2930 
 130   0.0000       1.493768        40.6475 
 131   0.0000       1.568015        42.6679 
 132   0.0000       1.580436        43.0058 
 133   0.0000       1.587464        43.1971 
 134   0.0000       1.592571        43.3360 
 135   0.0000       1.670151        45.4471 
 136   0.0000       1.745734        47.5038 
 137   0.0000       1.786017        48.6000 
 138   0.0000       1.800278        48.9881 
 139   0.0000       1.879698        51.1492 
 140   0.0000       1.887006        51.3481 
 141   0.0000       1.911985        52.0278 
 142   0.0000       1.938334        52.7448 
 143   0.0000       1.939918        52.7879 
 144   0.0000       1.945926        52.9513 
 145   0.0000       1.955402        53.2092 
 146   0.0000       1.966220        53.5036 
 147   0.0000       1.972038        53.6619 
 148   0.0000       1.990065        54.1524 
 149   0.0000       2.008667        54.6586 
 150   0.0000       2.026377        55.1405 
 151   0.0000       2.032002        55.2936 
 152   0.0000       2.035565        55.3905 
 153   0.0000       2.043769        55.6138 
 154   0.0000       2.081822        56.6492 
 155   0.0000       2.084559        56.7237 
 156   0.0000       2.094567        56.9961 
 157   0.0000       2.097295        57.0703 
 158   0.0000       2.104437        57.2646 
 159   0.0000       2.116794        57.6009 
 160   0.0000       2.121746        57.7356 
 161   0.0000       2.136963        58.1497 
 162   0.0000       2.145891        58.3927 
 163   0.0000       2.168232        59.0006 
 164   0.0000       2.178370        59.2765 
 165   0.0000       2.185437        59.4688 
 166   0.0000       2.205480        60.0142 
 167   0.0000       2.220820        60.4316 
 168   0.0000       2.229212        60.6599 
 169   0.0000       2.234632        60.8074 
 170   0.0000       2.242997        61.0350 
 171   0.0000       2.247246        61.1507 
 172   0.0000       2.253516        61.3213 
 173   0.0000       2.260121        61.5010 
 174   0.0000       2.261111        61.5280 
 175   0.0000       2.286070        62.2071 
 176   0.0000       2.289482        62.3000 
 177   0.0000       2.309220        62.8371 
 178   0.0000       2.314359        62.9769 
 179   0.0000       2.332932        63.4823 
 180   0.0000       2.365422        64.3664 
 181   0.0000       2.372769        64.5663 
 182   0.0000       2.379840        64.7587 
 183   0.0000       2.382067        64.8193 
 184   0.0000       2.392647        65.1072 
 185   0.0000       2.410348        65.5889 
 186   0.0000       2.413552        65.6761 
 187   0.0000       2.416930        65.7680 
 188   0.0000       2.430924        66.1488 
 189   0.0000       2.451953        66.7210 
 190   0.0000       2.456328        66.8401 
 191   0.0000       2.472663        67.2846 
 192   0.0000       2.488959        67.7280 
 193   0.0000       2.499111        68.0043 
 194   0.0000       2.511567        68.3432 
 195   0.0000       2.537288        69.0431 
 196   0.0000       2.562687        69.7343 
 197   0.0000       2.585040        70.3425 
 198   0.0000       2.599365        70.7323 
 199   0.0000       2.623025        71.3761 
 200   0.0000       2.642621        71.9094 
 201   0.0000       2.670981        72.6811 
 202   0.0000       2.699433        73.4553 
 203   0.0000       2.783516        75.7433 
 204   0.0000       2.787771        75.8591 
 205   0.0000       2.817517        76.6685 
 206   0.0000       2.856120        77.7190 
 207   0.0000       2.882780        78.4444 
 208   0.0000       2.908556        79.1458 
 209   0.0000       2.934456        79.8506 
 210   0.0000       2.963073        80.6293 
 211   0.0000       3.055152        83.1349 
 212   0.0000       3.156219        85.8851 
 213   0.0000       3.164632        86.1140 
 214   0.0000       3.234170        88.0062 
 215   0.0000       3.259224        88.6880 
 216   0.0000       3.304912        89.9312 
 217   0.0000       3.399661        92.5095 
 218   0.0000       3.407792        92.7307 
 219   0.0000       3.559437        96.8572 
 220   0.0000       3.584661        97.5436 
 221   0.0000       3.592798        97.7650 
 222   0.0000       3.786668       103.0405 
 223   0.0000       3.793005       103.2129 
 224   0.0000       3.936312       107.1125 
 225   0.0000       4.191721       114.0625 
 226   0.0000       4.200849       114.3109 
 227   0.0000       4.446142       120.9857 
 228   0.0000       4.475652       121.7887 
 229   0.0000       4.853651       132.0746 
 230   0.0000       4.860332       132.2564 
 231   0.0000       4.959696       134.9602 
 232   0.0000       4.974811       135.3715 
 233   0.0000       5.111063       139.0791 
 234   0.0000       5.125998       139.4855 
 235   0.0000       5.138750       139.8325 
 236   0.0000       5.331659       145.0818 
 237   0.0000       5.542408       150.8166 
 238   0.0000       5.558903       151.2654 
 239   0.0000       5.882663       160.0754 
 240   0.0000      11.043490       300.5086 
 241   0.0000      11.046600       300.5933 
 242   0.0000      11.055142       300.8257 
 243   0.0000      11.089425       301.7586 
 244   0.0000      11.108892       302.2883 
 245   0.0000      11.113838       302.4229 
 246   0.0000      11.165395       303.8258 
 247   0.0000      11.213176       305.1260 
 248   0.0000      11.220898       305.3362 
 249   0.0000      22.671696       616.9282 
 250   0.0000      25.302530       688.5168 
 251   0.0000      25.350067       689.8104 
 252   0.0000      25.498213       693.8416 
 253   0.0000      32.445948       882.8991 
 254   0.0000      35.564383       967.7561 
 255   0.0000      35.813112       974.5243 
 256   0.0000      35.830826       975.0063 
 257   0.0000      35.933439       977.7986 
 258   0.0000     123.631007      3364.1707 

                    ********************************
                    * MULLIKEN POPULATION ANALYSIS *
                    ********************************

-----------------------
MULLIKEN ATOMIC CHARGES
-----------------------
   0 C :   -0.264779
   1 N :   -0.313691
   2 H :    0.157007
   3 H :    0.157104
   4 H :    0.159300
   5 H :    0.297222
   6 H :    0.298433
   7 H :    0.300903
   8 Pb:    0.781001
   9 Cl:   -0.521834
  10 Cl:   -0.529239
  11 Cl:   -0.521426
Sum of atomic charges:   -0.0000000

--------------------------------
MULLIKEN REDUCED ORBITAL CHARGES
--------------------------------
  0 C s       :     3.283332  s :     3.283332
      pz      :     0.978289  p :     2.905530
      px      :     0.990658
      py      :     0.936583
      dz2     :     0.007098  d :     0.069797
      dxz     :     0.018460
      dyz     :     0.018101
      dx2y2   :     0.007711
      dxy     :     0.018427
      f0      :     0.000355  f :     0.006120
      f+1     :     0.000504
      f-1     :     0.000734
      f+2     :     0.000760
      f-2     :     0.002643
      f+3     :     0.000512
      f-3     :     0.000611
  1 N s       :     3.435432  s :     3.435432
      pz      :     1.275398  p :     3.828836
      px      :     1.283324
      py      :     1.270115
      dz2     :     0.005950  d :     0.047302
      dxz     :     0.012157
      dyz     :     0.011231
      dx2y2   :     0.006398
      dxy     :     0.011565
      f0      :     0.000107  f :     0.002122
      f+1     :     0.000163
      f-1     :     0.000190
      f+2     :     0.000210
      f-2     :     0.001128
      f+3     :     0.000156
      f-3     :     0.000168
  2 H s       :     0.821274  s :     0.821274
      pz      :     0.008269  p :     0.021719
      px      :     0.007777
      py      :     0.005673
  3 H s       :     0.821181  s :     0.821181
      pz      :     0.006893  p :     0.021715
      px      :     0.007344
      py      :     0.007478
  4 H s       :     0.818922  s :     0.818922
      pz      :     0.006821  p :     0.021779
      px      :     0.007411
      py      :     0.007546
  5 H s       :     0.663329  s :     0.663329
      pz      :     0.009578  p :     0.039449
      px      :     0.012348
      py      :     0.017523
  6 H s       :     0.655469  s :     0.655469
      pz      :     0.019967  p :     0.046098
      px      :     0.011599
      py      :     0.014531
  7 H s       :     0.652932  s :     0.652932
      pz      :     0.016308  p :     0.046166
      px      :     0.021254
      py      :     0.008604
  8 Pbs       :     3.922576  s :     3.922576
      pz      :     2.371277  p :     7.067786
      px      :     2.343089
      py      :     2.353421
      dz2     :     2.030282  d :    10.155160
      dxz     :     2.031720
      dyz     :     2.030753
      dx2y2   :     2.029165
      dxy     :     2.033240
      f0      :     0.013240  f :     0.073477
      f+1     :     0.010478
      f-1     :     0.011158
      f+2     :     0.007639
      f-2     :     0.007067
      f+3     :     0.011866
      f-3     :     0.012029
  9 Cls       :     5.954028  s :     5.954028
      pz      :     3.874120  p :    11.543510
      px      :     3.741466
      py      :     3.927924
      dz2     :     0.005604  d :     0.023238
      dxz     :     0.004962
      dyz     :     0.002066
      dx2y2   :     0.006332
      dxy     :     0.004274
      f0      :     0.000113  f :     0.001058
      f+1     :     0.000178
      f-1     :     0.000087
      f+2     :     0.000162
      f-2     :     0.000091
      f+3     :     0.000214
      f-3     :     0.000212
 10 Cls       :     5.954672  s :     5.954672
      pz      :     3.938140  p :    11.551479
      px      :     3.858632
      py      :     3.754708
      dz2     :     0.003055  d :     0.022122
      dxz     :     0.002921
      dyz     :     0.002612
      dx2y2   :     0.007570
      dxy     :     0.005965
      f0      :     0.000119  f :     0.000966
      f+1     :     0.000071
      f-1     :     0.000147
      f+2     :     0.000118
      f-2     :     0.000078
      f+3     :     0.000300
      f-3     :     0.000131
 11 Cls       :     5.952741  s :     5.952741
      pz      :     3.745248  p :    11.545741
      px      :     3.935207
      py      :     3.865286
      dz2     :     0.008998  d :     0.021927
      dxz     :     0.003019
      dyz     :     0.005980
      dx2y2   :     0.002357
      dxy     :     0.001575
      f0      :     0.000281  f :     0.001017
      f+1     :     0.000150
      f-1     :     0.000336
      f+2     :     0.000092
      f-2     :     0.000077
      f+3     :     0.000039
      f-3     :     0.000041


                     *******************************
                     * LOEWDIN POPULATION ANALYSIS *
                     *******************************

----------------------
LOEWDIN ATOMIC CHARGES
----------------------
   0 C :   -0.274439
   1 N :    0.060821
   2 H :    0.125059
   3 H :    0.125146
   4 H :    0.126315
   5 H :    0.175004
   6 H :    0.148285
   7 H :    0.146924
   8 Pb:   -0.110643
   9 Cl:   -0.166212
  10 Cl:   -0.186352
  11 Cl:   -0.169907

-------------------------------
LOEWDIN REDUCED ORBITAL CHARGES
-------------------------------
  0 C s       :     2.853059  s :     2.853059
      pz      :     1.032499  p :     3.081027
      px      :     1.042311
      py      :     1.006217
      dz2     :     0.028722  d :     0.303335
      dxz     :     0.079326
      dyz     :     0.081846
      dx2y2   :     0.032453
      dxy     :     0.080988
      f0      :     0.005242  f :     0.037018
      f+1     :     0.003953
      f-1     :     0.005704
      f+2     :     0.004376
      f-2     :     0.007019
      f+3     :     0.004891
      f-3     :     0.005833
  1 N s       :     3.003349  s :     3.003349
      pz      :     1.254616  p :     3.764383
      px      :     1.257337
      py      :     1.252430
      dz2     :     0.017875  d :     0.161887
      dxz     :     0.042778
      dyz     :     0.040675
      dx2y2   :     0.019568
      dxy     :     0.040990
      f0      :     0.001470  f :     0.009561
      f+1     :     0.001128
      f-1     :     0.001436
      f+2     :     0.001032
      f-2     :     0.001722
      f+3     :     0.001258
      f-3     :     0.001515
  2 H s       :     0.812735  s :     0.812735
      pz      :     0.022822  p :     0.062206
      px      :     0.021675
      py      :     0.017709
  3 H s       :     0.812620  s :     0.812620
      pz      :     0.019364  p :     0.062234
      px      :     0.022296
      py      :     0.020573
  4 H s       :     0.811348  s :     0.811348
      pz      :     0.020858  p :     0.062336
      px      :     0.020762
      py      :     0.020716
  5 H s       :     0.708415  s :     0.708415
      pz      :     0.031891  p :     0.116582
      px      :     0.036677
      py      :     0.048013
  6 H s       :     0.711840  s :     0.711840
      pz      :     0.058042  p :     0.139875
      px      :     0.038369
      py      :     0.043464
  7 H s       :     0.712031  s :     0.712031
      pz      :     0.049658  p :     0.141045
      px      :     0.063063
      py      :     0.028324
  8 Pbs       :     3.685399  s :     3.685399
      pz      :     2.533422  p :     7.546677
      px      :     2.505935
      py      :     2.507320
      dz2     :     2.148153  d :    10.657291
      dxz     :     2.112352
      dyz     :     2.123168
      dx2y2   :     2.139453
      dxy     :     2.134166
      f0      :     0.038380  f :     0.221276
      f+1     :     0.028660
      f-1     :     0.040341
      f+2     :     0.022345
      f-2     :     0.018639
      f+3     :     0.041325
      f-3     :     0.031585
  9 Cls       :     5.729205  s :     5.729205
      pz      :     3.805436  p :    11.391780
      px      :     3.716280
      py      :     3.870064
      dz2     :     0.011254  d :     0.042698
      dxz     :     0.006169
      dyz     :     0.003221
      dx2y2   :     0.013981
      dxy     :     0.008073
      f0      :     0.000354  f :     0.002529
      f+1     :     0.000452
      f-1     :     0.000246
      f+2     :     0.000286
      f-2     :     0.000155
      f+3     :     0.000468
      f-3     :     0.000567
 10 Cls       :     5.739033  s :     5.739033
      pz      :     3.879226  p :    11.404466
      px      :     3.793576
      py      :     3.731663
      dz2     :     0.006156  d :     0.040536
      dxz     :     0.004534
      dyz     :     0.004033
      dx2y2   :     0.015477
      dxy     :     0.010337
      f0      :     0.000227  f :     0.002317
      f+1     :     0.000108
      f-1     :     0.000371
      f+2     :     0.000323
      f-2     :     0.000133
      f+3     :     0.000887
      f-3     :     0.000269
 11 Cls       :     5.729398  s :     5.729398
      pz      :     3.719485  p :    11.397512
      px      :     3.877723
      py      :     3.800304
      dz2     :     0.021802  d :     0.040585
      dxz     :     0.004367
      dyz     :     0.009643
      dx2y2   :     0.002947
      dxy     :     0.001826
      f0      :     0.000821  f :     0.002412
      f+1     :     0.000296
      f-1     :     0.000905
      f+2     :     0.000124
      f-2     :     0.000121
      f+3     :     0.000068
      f-3     :     0.000077


                      *****************************
                      * MAYER POPULATION ANALYSIS *
                      *****************************

  NA   - Mulliken gross atomic population
  ZA   - Total nuclear charge
  QA   - Mulliken gross atomic charge
  VA   - Mayer's total valence
  BVA  - Mayer's bonded valence
  FA   - Mayer's free valence

  ATOM       NA         ZA         QA         VA         BVA        FA
  0 C      6.2648     6.0000    -0.2648     3.8485     3.8485    -0.0000
  1 N      7.3137     7.0000    -0.3137     3.3324     3.3324    -0.0000
  2 H      0.8430     1.0000     0.1570     0.9624     0.9624    -0.0000
  3 H      0.8429     1.0000     0.1571     0.9628     0.9628     0.0000
  4 H      0.8407     1.0000     0.1593     0.9649     0.9649     0.0000
  5 H      0.7028     1.0000     0.2972     0.9468     0.9468    -0.0000
  6 H      0.7016     1.0000     0.2984     0.9571     0.9571    -0.0000
  7 H      0.6991     1.0000     0.3009     0.9571     0.9571     0.0000
  8 Pb    21.2190    22.0000     0.7810     2.0054     2.0054    -0.0000
  9 Cl    17.5218    17.0000    -0.5218     0.8165     0.8165    -0.0000
 10 Cl    17.5292    17.0000    -0.5292     0.8053     0.8053     0.0000
 11 Cl    17.5214    17.0000    -0.5214     0.8136     0.8136    -0.0000

  Mayer bond orders larger than 0.1
B(  0-C ,  1-N ) :   0.9056 B(  0-C ,  2-H ) :   0.9704 B(  0-C ,  3-H ) :   0.9697 
B(  0-C ,  4-H ) :   0.9699 B(  1-N ,  5-H ) :   0.8380 B(  1-N ,  6-H ) :   0.8042 
B(  1-N ,  7-H ) :   0.8027 B(  6-H ,  9-Cl) :   0.1502 B(  7-H , 10-Cl) :   0.1542 
B(  8-Pb,  9-Cl) :   0.6529 B(  8-Pb, 10-Cl) :   0.6349 B(  8-Pb, 11-Cl) :   0.6926 


-------
TIMINGS
-------

Total SCF time: 0 days 0 hours 4 min 43 sec 

Total time                  ....     283.219 sec
Sum of individual times     ....     262.350 sec  ( 92.6%)

Fock matrix formation       ....     256.482 sec  ( 90.6%)
  Coulomb formation         ....     198.909 sec  ( 77.6% of F)
  Split-RI-J                ....      17.155 sec  (  6.7% of F)
  Chain of spheres X        ....     201.624 sec  ( 78.6% of F)
  COS-X 1 center corr.      ....       0.000 sec  (  0.0% of F)
  XC integration            ....      57.635 sec  ( 22.5% of F)
    Basis function eval.    ....      28.191 sec  ( 48.9% of XC)
    Density eval.           ....      11.382 sec  ( 19.7% of XC)
    XC-Functional eval.     ....       2.814 sec  (  4.9% of XC)
    XC-Potential eval.      ....      14.302 sec  ( 24.8% of XC)
Diagonalization             ....       0.510 sec  (  0.2%)
Density matrix formation    ....       0.035 sec  (  0.0%)
Population analysis         ....       0.068 sec  (  0.0%)
Initial guess               ....       0.113 sec  (  0.0%)
Orbital Transformation      ....       0.000 sec  (  0.0%)
Orbital Orthonormalization  ....       0.110 sec  (  0.0%)
DIIS solution               ....       0.126 sec  (  0.0%)
SOSCF solution              ....       0.052 sec  (  0.0%)
Grid generation             ....       4.963 sec  (  1.8%)

------------------------------------------------------------------------------
                              ORCA MP2 CALCULATION
------------------------------------------------------------------------------


----------------------
RI-MP2 ENERGY+GRADIENT
----------------------
Dimension of the basis                    ...  259
Memory devoted to MP2                     ... 1000 MB   
Data format for buffers                   ... DOUBLE
Compression type for matrix containers    ... UNCOMPRESSED
Overall scaling of the MP2 energy         ...   2.700e-01 Eh
Calculating two index integrals           ... done (    0.010 sec)
Cholesky decomposition of the V-matrix    ... done
Cholesky decomposition of V**-1           ... done (    0.020 sec)

-----------------
RI-TRANSFORMATION (AUX index driven)
-----------------

Dimension of the orbital-basis         ... 259
Dimension of the aux-basis             ... 493
Transformation of internal MOs         ...    0-  45
Transformation of internal/external MOs...    0-  45 to   46- 258
Number Format for Storage              ... Double (8 Byte)
Integral mode                          ... Direct

First Phase: integral generation and transformation of MO indices
  Aux angular momentum 0               ... done (    0.358 sec)
  Aux angular momentum 1               ... done (    0.283 sec)
  Aux angular momentum 2               ... done (    0.332 sec)
  Aux angular momentum 3               ... done (    0.188 sec)
  Aux angular momentum 4               ... done (    0.163 sec)
Closing buffer VIJ ( 0.00 GB; CompressionRatio= 1.95)
Closing buffer VIA ( 0.04 GB; CompressionRatio= 1.00)
  Phase 1 completed in     1.422 sec
Second Phase: sorting and transformation of aux index

IJ-Transformation
Memory available                       ... 990 MB 
Max. # MO pairs treated in a batch     ... 46    
# of internal orbitals                 ... 46
# batches for internal orbitals        ... 1
Closing buffer IJV ( 0.00 GB; CompressionRatio= 1.00)
(ij|v) transformation done in     0.085 sec

IA-Transformation
Memory available                       ... 990 MB 
Max. # MO pairs treated in a batch     ... 46    
# of internal orbitals                 ... 46
# batches for internal orbitals        ... 1
Closing buffer IAV ( 0.04 GB; CompressionRatio= 1.00)
(ia|v) transformation done in     0.331 sec

  Phase 2 completed in     0.434 sec
RI-Integral transformation completed in     1.856 sec
Opening buffers                              ... done

Starting loop over batches of integrals:

Operator 0  - window                       ... (  0- 45)x( 46-258)
Operator 0  - Memory available             ...  1000 MB
Operator 0  - Memory needed per MO         ...   1.6 MB
Operator 0  - Number of orbitals per batch ... 46
Operator 0  - Number of batches            ... 1

OPERATOR  0   PASS   0:  MOs     0 ...   45
  Reading integrals       ... ok
  Internal MO   2
  Internal MO   5
  Internal MO   8
  Internal MO  11
  Internal MO  14
  Internal MO  17
  Internal MO  20
  Internal MO  23
  Internal MO  26
  Internal MO  29
  Internal MO  32
  Internal MO  35
  Internal MO  38
  Internal MO  41
  Internal MO  44
Closing buffer GIPV ( 0.04 GB; CompressionRatio= 1.00)
Time spent in pair loops =    38.253 sec

-----------------------------------------------
 RI-MP2 CORRELATION ENERGY:     -0.582196385 Eh
-----------------------------------------------


---------------------
MP2 DENSITY FORMATION
---------------------

Completing the external part of the density      ... done
Storing the unrelaxed density                    ... done

Calculating the xc-kernel                        ... done
Calculating G(D)                                 ... done
Completing the Lagrangian                        ... done
Solving the Z-vector equations                   ... 

------------------------------------------------------------------------------
                           ORCA CP-SCF CALCULATION
------------------------------------------------------------------------------

Input orbitals are from        ... PbMACl3_mp2_md2_20.orca.gbw
Input Perturbation             ... PbMACl3_mp2_md2_20.orca.pin.tmp
Wavefunction output            ... PbMACl3_mp2_md2_20.orca.pout.tmp
Perturbation mode              ... Real perturbation
Solver                         ... DIIS
   MaxDIIS                     ... 20
   Levelshift                  ...    3.000e-01 Eh
Max. number of iterations      ... 128
Convergence tolerance          ... 1.000e-08
Integral handling              ... Direct
COSX GridX                     ... 1
Number of perturbations        ... 1
Number of operators            ... 1
Orbital ranges used for CP-SCF:
 Operator 0:  Orbitals   0... 45  to  46...258
DFT calculation                         ... on
Exchange functional (SCF)               ... B88
Exchange functional (CP-SCF)            ... B88
   X-Alpha parameter    XAlpha (SCF)    ...  0.666667
   X-Alpha parameter    XAlpha (CP-SCF) ...  0.666667
   Becke's b parameter  XBeta (SCF)     ...  0.004200
   Becke's b parameter  XBeta (CP-SCF)  ...  0.004200
Correlation functional (SCF)            ... LYP
Correlation functional (CP-SCF)         ... LYP
 LDA part of GGA corr.  LDAOpt (SCF)    ... VWN-3
 LDA part of GGA corr.  LDAOpt (CP-SCF) ... VWN-3
Hybrid DFT                              ... on
   Exchange mixing (SCF)                ...  0.530
   Exchange mixing (CP-SCF)             ...  0.530
   GGA exch. scaling(SCF)               ...  0.470
   GGA exch. scaling (CP-SCF)           ...  0.470
   GGA corr. scaling (SCF)              ...  0.730
   GGA corr. scaling (CP-SCF)           ...  0.730
The RIJCOSX approximation is active
Variables per vector in CP-SCF ... 9798
Number of vectors sought       ... 1
Calculating the xc-kernel      ... done

Solving the CP-SCF equations by a DIIS algorithm

-----------------
CP-SCF ITERATIONS
-----------------
  Iteration   0: MaxR=  0.088440380
  Iteration   1: MaxR=  0.041976101
  Iteration   2: MaxR=  0.011864091
  Iteration   3: MaxR=  0.004693143
  Iteration   4: MaxR=  0.002013173
  Iteration   5: MaxR=  0.000758902
  Iteration   6: MaxR=  0.000299109
  Iteration   7: MaxR=  0.000088955
  Iteration   8: MaxR=  0.000032848
  Iteration   9: MaxR=  0.000008932
  Iteration  10: MaxR=  0.000003230
  Iteration  11: MaxR=  0.000001179
  Iteration  12: MaxR=  0.000000521
  Iteration  13: MaxR=  0.000000157
  Iteration  14: MaxR=  0.000000056
  Iteration  15: MaxR=  0.000000021
  Iteration  16: MaxR=  0.000000008
                              *** THE CP-SCF HAS CONVERGED *** 
done
Finalizing the relaxed density                   ... done
Transforming P to the AO basis                   ... done
Storing the relaxed density                      ... done

------------------------------------
ENERGY WEIGHTED DENSITY FINALIZATION
------------------------------------

Gathering the parts of the W-matrix              ... done
Forming the Z-density                            ... done
Transforming Z to the AO basis                   ... done
Calculating G(Z)                                 ... done
Finalizing the W-matrix                          ... done
Transforming W to the AO basis and storing       ... done
Entering the RIJONX and RIJCOSX sections
Starting the three-index derivative integrals:
Operator 0  - Memory available             ...  1000 MB
Operator 0  - Memory needed per MO         ...   1.0 MB
Operator 0  - Number of orbitals per batch ... 46
Operator 0  - Number of batches            ... 1

OPERATOR  0   PASS   0:  MOs     0 ...   45

----------------------------------
MP2 DERIVATIVE INTEGRAL GENERATION
----------------------------------


Input Correlated Electron Density   ... PbMACl3_mp2_md2_20.orca.pmp2re
Input Energy Weighted Density       ... PbMACl3_mp2_md2_20.orca.wmp2.tmp
Input SCF Electron Density          ... PbMACl3_mp2_md2_20.orca.scfp.tmp

One-Electron Terms    ...
  ECP gradient                                           ... One-Electron Terms done

-----------------------------------------------------------
MP2 COSX Grid Generation
-----------------------------------------------------------

General Integration Accuracy     IntAcc      ...  4.340
Radial Grid Type                 RadialGrid  ... Gauss-Chebyshev
Angular Grid (max. acc.)         AngularGrid ... Lebedev-302
Angular grid pruning method      GridPruning ... 3 (G Style)
Weight generation scheme         WeightScheme... Becke
Basis function cutoff            BFCut       ...    1.0000e-11
Integration weight cutoff        WCut        ...    1.0000e-14
Grids for H and He will be reduced by one unit

# of grid points (after initial pruning)     ...  57718 (   0.0 sec)
# of grid points (after weights+screening)   ...  54206 (   0.1 sec)
nearest neighbour list constructed           ...    0.0 sec
Grid point re-assignment to atoms done       ...    0.0 sec
Grid point division into batches done        ...    0.2 sec
Reduced shell lists constructed in    1.5 sec

Total number of grid points                  ...    54206
Total number of batches                      ...      852
Average number of points per batch           ...       63
Average number of grid points per atom       ...     4517
Average number of shells per batch           ...    58.35 (57.77%)
Average number of basis functions per batch  ...   155.54 (60.05%)
Average number of large shells per batch     ...    44.46 (76.19%)
Average number of large basis fcns per batch ...   115.34 (74.16%)
Maximum spatial batch extension              ...  40.43, 40.43, 32.37 au
Average spatial batch extension              ...   3.09,  3.13,  3.05 au

Overlap Fitting                  UseSFitting ... on
Two electron COSX terms .... 
Integration Timings:
Total Time                  =    82.0 sec
Basis fcn evaluation        =     0.6 sec
Density evaluation          =     0.8 sec
Integral evaluation         =    79.1 sec
K(P) evaluation             =     0.6 sec
                          .... COSX two electron terms done
COSX two-electron contribution to the gradient
     0:    -0.018372    -0.021804    -0.019580
     1:     0.058859     0.068431     0.044524
     2:     0.100201    -0.081626     0.107258
     3:    -0.103498     0.097547     0.089238
     4:     0.095782     0.099726    -0.096791
     5:    -0.115479    -0.116511     0.097814
     6:     0.092535    -0.116390    -0.097739
     7:    -0.108304     0.070729    -0.121006
     8:    -0.034060    -0.036079    -0.043216
     9:     0.063368     0.013994    -0.027693
    10:    -0.037451     0.057185     0.002075
    11:     0.006778    -0.034707     0.064008
Exchange-correlation gradient    ... done
Dispersion correction            ... 
Entering the calculation of the dispersion correction...

Checking the input atom types...

Done
done

                *********************************************
                * UNRELAXED MP2 DENSITY POPULATION ANALYSIS *
                *********************************************

------------------------------------------------------------------------------
                           ORCA POPULATION ANALYSIS
------------------------------------------------------------------------------
Input electron density              ... PbMACl3_mp2_md2_20.orca.pmp2ur
BaseName (.gbw .S,...)              ... PbMACl3_mp2_md2_20.orca

                    ********************************
                    * MULLIKEN POPULATION ANALYSIS *
                    ********************************

-----------------------
MULLIKEN ATOMIC CHARGES
-----------------------
   0 C :   -0.269129
   1 N :   -0.312885
   2 H :    0.158029
   3 H :    0.158109
   4 H :    0.160291
   5 H :    0.296181
   6 H :    0.297031
   7 H :    0.299515
   8 Pb:    0.766423
   9 Cl:   -0.515521
  10 Cl:   -0.522927
  11 Cl:   -0.515118
Sum of atomic charges:   -0.0000000

--------------------------------
MULLIKEN REDUCED ORBITAL CHARGES
--------------------------------
  0 C s       :     3.282105  s :     3.282105
      pz      :     0.976846  p :     2.901400
      px      :     0.989105
      py      :     0.935449
      dz2     :     0.009117  d :     0.078365
      dxz     :     0.020034
      dyz     :     0.019577
      dx2y2   :     0.009706
      dxy     :     0.019930
      f0      :     0.000512  f :     0.007260
      f+1     :     0.000678
      f-1     :     0.000905
      f+2     :     0.000942
      f-2     :     0.002768
      f+3     :     0.000678
      f-3     :     0.000776
  1 N s       :     3.433303  s :     3.433303
      pz      :     1.271749  p :     3.817893
      px      :     1.279714
      py      :     1.266429
      dz2     :     0.008304  d :     0.058519
      dxz     :     0.014315
      dyz     :     0.013413
      dx2y2   :     0.008762
      dxy     :     0.013724
      f0      :     0.000253  f :     0.003171
      f+1     :     0.000314
      f-1     :     0.000344
      f+2     :     0.000367
      f-2     :     0.001270
      f+3     :     0.000305
      f-3     :     0.000319
  2 H s       :     0.819239  s :     0.819239
      pz      :     0.008595  p :     0.022732
      px      :     0.008106
      py      :     0.006031
  3 H s       :     0.819163  s :     0.819163
      pz      :     0.007230  p :     0.022727
      px      :     0.007687
      py      :     0.007810
  4 H s       :     0.816924  s :     0.816924
      pz      :     0.007167  p :     0.022785
      px      :     0.007741
      py      :     0.007877
  5 H s       :     0.663748  s :     0.663748
      pz      :     0.009791  p :     0.040072
      px      :     0.012541
      py      :     0.017739
  6 H s       :     0.656222  s :     0.656222
      pz      :     0.020208  p :     0.046748
      px      :     0.011807
      py      :     0.014732
  7 H s       :     0.653676  s :     0.653676
      pz      :     0.016485  p :     0.046809
      px      :     0.021468
      py      :     0.008857
  8 Pbs       :     3.904155  s :     3.904155
      pz      :     2.379115  p :     7.092383
      px      :     2.351523
      py      :     2.361746
      dz2     :     2.024801  d :    10.127470
      dxz     :     2.026212
      dyz     :     2.025191
      dx2y2   :     2.023619
      dxy     :     2.027647
      f0      :     0.018392  f :     0.109568
      f+1     :     0.015665
      f-1     :     0.016235
      f+2     :     0.012836
      f-2     :     0.012250
      f+3     :     0.016962
      f-3     :     0.017228
  9 Cls       :     5.949474  s :     5.949474
      pz      :     3.859249  p :    11.499693
      px      :     3.727136
      py      :     3.913308
      dz2     :     0.013511  d :     0.062517
      dxz     :     0.012850
      dyz     :     0.009931
      dx2y2   :     0.014106
      dxy     :     0.012118
      f0      :     0.000515  f :     0.003837
      f+1     :     0.000585
      f-1     :     0.000477
      f+2     :     0.000557
      f-2     :     0.000485
      f+3     :     0.000610
      f-3     :     0.000608
 10 Cls       :     5.950124  s :     5.950124
      pz      :     3.923548  p :    11.507689
      px      :     3.843824
      py      :     3.740316
      dz2     :     0.010854  d :     0.061379
      dxz     :     0.010794
      dyz     :     0.010468
      dx2y2   :     0.015463
      dxy     :     0.013800
      f0      :     0.000506  f :     0.003735
      f+1     :     0.000458
      f-1     :     0.000533
      f+2     :     0.000517
      f-2     :     0.000472
      f+3     :     0.000706
      f-3     :     0.000542
 11 Cls       :     5.948170  s :     5.948170
      pz      :     3.730967  p :    11.502161
      px      :     3.920663
      py      :     3.850531
      dz2     :     0.016774  d :     0.061014
      dxz     :     0.010852
      dyz     :     0.013806
      dx2y2   :     0.010194
      dxy     :     0.009388
      f0      :     0.000686  f :     0.003772
      f+1     :     0.000548
      f-1     :     0.000741
      f+2     :     0.000485
      f-2     :     0.000469
      f+3     :     0.000421
      f-3     :     0.000423


                     *******************************
                     * LOEWDIN POPULATION ANALYSIS *
                     *******************************

----------------------
LOEWDIN ATOMIC CHARGES
----------------------
   0 C :   -0.277473
   1 N :    0.059970
   2 H :    0.125792
   3 H :    0.125874
   4 H :    0.127046
   5 H :    0.174416
   6 H :    0.147664
   7 H :    0.146326
   8 Pb:   -0.120239
   9 Cl:   -0.161915
  10 Cl:   -0.181920
  11 Cl:   -0.165541

-------------------------------
LOEWDIN REDUCED ORBITAL CHARGES
-------------------------------
  0 C s       :     2.852460  s :     2.852460
      pz      :     1.030114  p :     3.073960
      px      :     1.039852
      py      :     1.003994
      dz2     :     0.030522  d :     0.312271
      dxz     :     0.081141
      dyz     :     0.083620
      dx2y2   :     0.034222
      dxy     :     0.082767
      f0      :     0.005470  f :     0.038781
      f+1     :     0.004168
      f-1     :     0.005913
      f+2     :     0.004589
      f-2     :     0.007479
      f+3     :     0.005120
      f-3     :     0.006043
  1 N s       :     3.002854  s :     3.002854
      pz      :     1.250665  p :     3.752530
      px      :     1.253432
      py      :     1.248433
      dz2     :     0.019959  d :     0.173715
      dxz     :     0.045333
      dyz     :     0.043235
      dx2y2   :     0.021663
      dxy     :     0.043525
      f0      :     0.001654  f :     0.010931
      f+1     :     0.001308
      f-1     :     0.001612
      f+2     :     0.001211
      f-2     :     0.002012
      f+3     :     0.001443
      f-3     :     0.001691
  2 H s       :     0.810159  s :     0.810159
      pz      :     0.023474  p :     0.064050
      px      :     0.022294
      py      :     0.018281
  3 H s       :     0.810048  s :     0.810048
      pz      :     0.019946  p :     0.064077
      px      :     0.022941
      py      :     0.021190
  4 H s       :     0.808787  s :     0.808787
      pz      :     0.021474  p :     0.064167
      px      :     0.021359
      py      :     0.021334
  5 H s       :     0.707511  s :     0.707511
      pz      :     0.032352  p :     0.118073
      px      :     0.037179
      py      :     0.048543
  6 H s       :     0.711070  s :     0.711070
      pz      :     0.058461  p :     0.141267
      px      :     0.038831
      py      :     0.043975
  7 H s       :     0.711261  s :     0.711261
      pz      :     0.050155  p :     0.142413
      px      :     0.063490
      py      :     0.028769
  8 Pbs       :     3.669303  s :     3.669303
      pz      :     2.539646  p :     7.566674
      px      :     2.512857
      py      :     2.514171
      dz2     :     2.142185  d :    10.627116
      dxz     :     2.106380
      dyz     :     2.117076
      dx2y2   :     2.133433
      dxy     :     2.128043
      f0      :     0.043480  f :     0.257146
      f+1     :     0.033830
      f-1     :     0.045344
      f+2     :     0.027527
      f-2     :     0.023856
      f+3     :     0.046349
      f-3     :     0.036760
  9 Cls       :     5.724877  s :     5.724877
      pz      :     3.791184  p :    11.349543
      px      :     3.702568
      py      :     3.855791
      dz2     :     0.019213  d :     0.082110
      dxz     :     0.014081
      dyz     :     0.011108
      dx2y2   :     0.021825
      dxy     :     0.015884
      f0      :     0.000767  f :     0.005384
      f+1     :     0.000870
      f-1     :     0.000643
      f+2     :     0.000692
      f-2     :     0.000555
      f+3     :     0.000880
      f-3     :     0.000977
 10 Cls       :     5.734672  s :     5.734672
      pz      :     3.864962  p :    11.362189
      px      :     3.779426
      py      :     3.717801
      dz2     :     0.014020  d :     0.079905
      dxz     :     0.012406
      dyz     :     0.011834
      dx2y2   :     0.023365
      dxy     :     0.018280
      f0      :     0.000619  f :     0.005154
      f+1     :     0.000500
      f-1     :     0.000769
      f+2     :     0.000730
      f-2     :     0.000532
      f+3     :     0.001317
      f-3     :     0.000688
 11 Cls       :     5.725073  s :     5.725073
      pz      :     3.705790  p :    11.355409
      px      :     3.863515
      py      :     3.786104
      dz2     :     0.029631  d :     0.079813
      dxz     :     0.012144
      dyz     :     0.017563
      dx2y2   :     0.010808
      dxy     :     0.009667
      f0      :     0.001247  f :     0.005246
      f+1     :     0.000704
      f-1     :     0.001339
      f+2     :     0.000522
      f-2     :     0.000517
      f+3     :     0.000454
      f-3     :     0.000463


                      *****************************
                      * MAYER POPULATION ANALYSIS *
                      *****************************

  NA   - Mulliken gross atomic population
  ZA   - Total nuclear charge
  QA   - Mulliken gross atomic charge
  VA   - Mayer's total valence
  BVA  - Mayer's bonded valence
  FA   - Mayer's free valence

  ATOM       NA         ZA         QA         VA         BVA        FA
  0 C      6.2691     6.0000    -0.2691     3.8941     3.7790     0.1150
  1 N      7.3129     7.0000    -0.3129     3.4075     3.2607     0.1468
  2 H      0.8420     1.0000     0.1580     0.9650     0.9465     0.0185
  3 H      0.8419     1.0000     0.1581     0.9655     0.9469     0.0186
  4 H      0.8397     1.0000     0.1603     0.9675     0.9490     0.0185
  5 H      0.7038     1.0000     0.2962     0.9496     0.9288     0.0208
  6 H      0.7030     1.0000     0.2970     0.9600     0.9390     0.0210
  7 H      0.7005     1.0000     0.2995     0.9600     0.9392     0.0208
  8 Pb    21.2336    22.0000     0.7664     2.3105     1.9456     0.3649
  9 Cl    17.5155    17.0000    -0.5155     1.0519     0.7917     0.2602
 10 Cl    17.5229    17.0000    -0.5229     1.0412     0.7808     0.2604
 11 Cl    17.5151    17.0000    -0.5151     1.0489     0.7888     0.2602

  Mayer bond orders larger than 0.1
B(  0-C ,  1-N ) :   0.8831 B(  0-C ,  2-H ) :   0.9552 B(  0-C ,  3-H ) :   0.9545 
B(  0-C ,  4-H ) :   0.9547 B(  1-N ,  5-H ) :   0.8223 B(  1-N ,  6-H ) :   0.7892 
B(  1-N ,  7-H ) :   0.7879 B(  6-H ,  9-Cl) :   0.1476 B(  7-H , 10-Cl) :   0.1516 
B(  8-Pb,  9-Cl) :   0.6332 B(  8-Pb, 10-Cl) :   0.6156 B(  8-Pb, 11-Cl) :   0.6717 



                *******************************************
                * RELAXED MP2 DENSITY POPULATION ANALYSIS *
                *******************************************

------------------------------------------------------------------------------
                           ORCA POPULATION ANALYSIS
------------------------------------------------------------------------------
Input electron density              ... PbMACl3_mp2_md2_20.orca.pmp2re
BaseName (.gbw .S,...)              ... PbMACl3_mp2_md2_20.orca

                    ********************************
                    * MULLIKEN POPULATION ANALYSIS *
                    ********************************

-----------------------
MULLIKEN ATOMIC CHARGES
-----------------------
   0 C :   -0.286812
   1 N :   -0.307509
   2 H :    0.161606
   3 H :    0.161620
   4 H :    0.163719
   5 H :    0.290059
   6 H :    0.289943
   7 H :    0.292510
   8 Pb:    0.715244
   9 Cl:   -0.491090
  10 Cl:   -0.498403
  11 Cl:   -0.490887
Sum of atomic charges:    0.0000000

--------------------------------
MULLIKEN REDUCED ORBITAL CHARGES
--------------------------------
  0 C s       :     3.284605  s :     3.284605
      pz      :     0.983332  p :     2.920950
      px      :     0.995263
      py      :     0.942355
      dz2     :     0.009291  d :     0.074160
      dxz     :     0.018494
      dyz     :     0.018059
      dx2y2   :     0.009890
      dxy     :     0.018427
      f0      :     0.000494  f :     0.007098
      f+1     :     0.000670
      f-1     :     0.000891
      f+2     :     0.000933
      f-2     :     0.002685
      f+3     :     0.000663
      f-3     :     0.000762
  1 N s       :     3.434207  s :     3.434207
      pz      :     1.270243  p :     3.812920
      px      :     1.278429
      py      :     1.264248
      dz2     :     0.008482  d :     0.057265
      dxz     :     0.013817
      dyz     :     0.012869
      dx2y2   :     0.008971
      dxy     :     0.013126
      f0      :     0.000249  f :     0.003117
      f+1     :     0.000313
      f-1     :     0.000345
      f+2     :     0.000366
      f-2     :     0.001224
      f+3     :     0.000300
      f-3     :     0.000320
  2 H s       :     0.816033  s :     0.816033
      pz      :     0.008417  p :     0.022361
      px      :     0.007959
      py      :     0.005985
  3 H s       :     0.816022  s :     0.816022
      pz      :     0.007133  p :     0.022357
      px      :     0.007548
      py      :     0.007677
  4 H s       :     0.813870  s :     0.813870
      pz      :     0.007059  p :     0.022411
      px      :     0.007615
      py      :     0.007737
  5 H s       :     0.670258  s :     0.670258
      pz      :     0.009710  p :     0.039683
      px      :     0.012422
      py      :     0.017551
  6 H s       :     0.663765  s :     0.663765
      pz      :     0.020016  p :     0.046292
      px      :     0.011689
      py      :     0.014587
  7 H s       :     0.661142  s :     0.661142
      pz      :     0.016295  p :     0.046348
      px      :     0.021219
      py      :     0.008835
  8 Pbs       :     3.920372  s :     3.920372
      pz      :     2.388933  p :     7.129519
      px      :     2.366167
      py      :     2.374419
      dz2     :     2.023397  d :    10.126924
      dxz     :     2.027273
      dyz     :     2.025637
      dx2y2   :     2.022855
      dxy     :     2.027761
      f0      :     0.018075  f :     0.107942
      f+1     :     0.015465
      f-1     :     0.015901
      f+2     :     0.012730
      f-2     :     0.012160
      f+3     :     0.016616
      f-3     :     0.016995
  9 Cls       :     5.949994  s :     5.949994
      pz      :     3.848722  p :    11.474587
      px      :     3.718664
      py      :     3.907201
      dz2     :     0.013688  d :     0.062652
      dxz     :     0.012719
      dyz     :     0.010038
      dx2y2   :     0.013982
      dxy     :     0.012224
      f0      :     0.000520  f :     0.003858
      f+1     :     0.000588
      f-1     :     0.000481
      f+2     :     0.000558
      f-2     :     0.000488
      f+3     :     0.000612
      f-3     :     0.000610
 10 Cls       :     5.950689  s :     5.950689
      pz      :     3.917527  p :    11.482451
      px      :     3.833629
      py      :     3.731296
      dz2     :     0.010781  d :     0.061508
      dxz     :     0.010949
      dyz     :     0.010549
      dx2y2   :     0.015653
      dxy     :     0.013577
      f0      :     0.000511  f :     0.003756
      f+1     :     0.000459
      f-1     :     0.000533
      f+2     :     0.000522
      f-2     :     0.000475
      f+3     :     0.000709
      f-3     :     0.000547
 11 Cls       :     5.948756  s :     5.948756
      pz      :     3.722386  p :    11.477341
      px      :     3.914685
      py      :     3.840269
      dz2     :     0.016828  d :     0.061004
      dxz     :     0.010937
      dyz     :     0.013565
      dx2y2   :     0.010240
      dxy     :     0.009433
      f0      :     0.000688  f :     0.003787
      f+1     :     0.000552
      f-1     :     0.000740
      f+2     :     0.000486
      f-2     :     0.000471
      f+3     :     0.000423
      f-3     :     0.000426


                     *******************************
                     * LOEWDIN POPULATION ANALYSIS *
                     *******************************

----------------------
LOEWDIN ATOMIC CHARGES
----------------------
   0 C :   -0.287510
   1 N :    0.056003
   2 H :    0.127757
   3 H :    0.127821
   4 H :    0.128956
   5 H :    0.173142
   6 H :    0.146089
   7 H :    0.144729
   8 Pb:   -0.144778
   9 Cl:   -0.149746
  10 Cl:   -0.169303
  11 Cl:   -0.153161

-------------------------------
LOEWDIN REDUCED ORBITAL CHARGES
-------------------------------
  0 C s       :     2.853803  s :     2.853803
      pz      :     1.034546  p :     3.087293
      px      :     1.044174
      py      :     1.008573
      dz2     :     0.030741  d :     0.307866
      dxz     :     0.079583
      dyz     :     0.081962
      dx2y2   :     0.034470
      dxy     :     0.081111
      f0      :     0.005451  f :     0.038547
      f+1     :     0.004147
      f-1     :     0.005894
      f+2     :     0.004555
      f-2     :     0.007379
      f+3     :     0.005090
      f-3     :     0.006031
  1 N s       :     3.005089  s :     3.005089
      pz      :     1.251127  p :     3.753975
      px      :     1.254155
      py      :     1.248694
      dz2     :     0.020222  d :     0.173927
      dxz     :     0.045266
      dyz     :     0.043111
      dx2y2   :     0.021973
      dxy     :     0.043355
      f0      :     0.001671  f :     0.011006
      f+1     :     0.001314
      f-1     :     0.001621
      f+2     :     0.001212
      f-2     :     0.002030
      f+3     :     0.001453
      f-3     :     0.001705
  2 H s       :     0.808105  s :     0.808105
      pz      :     0.023461  p :     0.064138
      px      :     0.022302
      py      :     0.018374
  3 H s       :     0.808014  s :     0.808014
      pz      :     0.019993  p :     0.064165
      px      :     0.022954
      py      :     0.021218
  4 H s       :     0.806805  s :     0.806805
      pz      :     0.021511  p :     0.064239
      px      :     0.021378
      py      :     0.021349
  5 H s       :     0.708845  s :     0.708845
      pz      :     0.032308  p :     0.118013
      px      :     0.037178
      py      :     0.048528
  6 H s       :     0.712770  s :     0.712770
      pz      :     0.058375  p :     0.141141
      px      :     0.038783
      py      :     0.043983
  7 H s       :     0.713019  s :     0.713019
      pz      :     0.050125  p :     0.142252
      px      :     0.063363
      py      :     0.028764
  8 Pbs       :     3.683277  s :     3.683277
      pz      :     2.543830  p :     7.586170
      px      :     2.521574
      py      :     2.520765
      dz2     :     2.139435  d :    10.620332
      dxz     :     2.106338
      dyz     :     2.116223
      dx2y2   :     2.131502
      dxy     :     2.126833
      f0      :     0.043095  f :     0.254999
      f+1     :     0.033526
      f-1     :     0.044984
      f+2     :     0.027379
      f-2     :     0.023655
      f+3     :     0.045923
      f-3     :     0.036438
  9 Cls       :     5.728250  s :     5.728250
      pz      :     3.783888  p :    11.332666
      px      :     3.697566
      py      :     3.851212
      dz2     :     0.019587  d :     0.083346
      dxz     :     0.014185
      dyz     :     0.011235
      dx2y2   :     0.022191
      dxy     :     0.016149
      f0      :     0.000783  f :     0.005483
      f+1     :     0.000883
      f-1     :     0.000648
      f+2     :     0.000707
      f-2     :     0.000563
      f+3     :     0.000903
      f-3     :     0.000996
 10 Cls       :     5.737990  s :     5.737990
      pz      :     3.860334  p :    11.345037
      px      :     3.772453
      py      :     3.712250
      dz2     :     0.014157  d :     0.081033
      dxz     :     0.012588
      dyz     :     0.011968
      dx2y2   :     0.023836
      dxy     :     0.018485
      f0      :     0.000626  f :     0.005243
      f+1     :     0.000505
      f-1     :     0.000785
      f+2     :     0.000737
      f-2     :     0.000538
      f+3     :     0.001354
      f-3     :     0.000697
 11 Cls       :     5.728401  s :     5.728401
      pz      :     3.700687  p :    11.338446
      px      :     3.858986
      py      :     3.778774
      dz2     :     0.030261  d :     0.080969
      dxz     :     0.012319
      dyz     :     0.017750
      dx2y2   :     0.010905
      dxy     :     0.009734
      f0      :     0.001275  f :     0.005346
      f+1     :     0.000715
      f-1     :     0.001381
      f+2     :     0.000529
      f-2     :     0.000523
      f+3     :     0.000456
      f-3     :     0.000466


                      *****************************
                      * MAYER POPULATION ANALYSIS *
                      *****************************

  NA   - Mulliken gross atomic population
  ZA   - Total nuclear charge
  QA   - Mulliken gross atomic charge
  VA   - Mayer's total valence
  BVA  - Mayer's bonded valence
  FA   - Mayer's free valence

  ATOM       NA         ZA         QA         VA         BVA        FA
  0 C      6.2868     6.0000    -0.2868     3.8956     3.7808     0.1147
  1 N      7.3075     7.0000    -0.3075     3.4151     3.2688     0.1463
  2 H      0.8384     1.0000     0.1616     0.9641     0.9456     0.0185
  3 H      0.8384     1.0000     0.1616     0.9646     0.9461     0.0185
  4 H      0.8363     1.0000     0.1637     0.9668     0.9483     0.0185
  5 H      0.7099     1.0000     0.2901     0.9562     0.9356     0.0206
  6 H      0.7101     1.0000     0.2899     0.9672     0.9463     0.0209
  7 H      0.7075     1.0000     0.2925     0.9669     0.9463     0.0207
  8 Pb    21.2848    22.0000     0.7152     2.3875     2.0278     0.3597
  9 Cl    17.4911    17.0000    -0.4911     1.0958     0.8369     0.2589
 10 Cl    17.4984    17.0000    -0.4984     1.0854     0.8263     0.2591
 11 Cl    17.4909    17.0000    -0.4909     1.0923     0.8335     0.2588

  Mayer bond orders larger than 0.1
B(  0-C ,  1-N ) :   0.8911 B(  0-C ,  2-H ) :   0.9524 B(  0-C ,  3-H ) :   0.9516 
B(  0-C ,  4-H ) :   0.9519 B(  1-N ,  5-H ) :   0.8189 B(  1-N ,  6-H ) :   0.7848 
B(  1-N ,  7-H ) :   0.7836 B(  5-H , 11-Cl) :   0.1067 B(  6-H ,  9-Cl) :   0.1582 
B(  7-H , 10-Cl) :   0.1624 B(  8-Pb,  9-Cl) :   0.6583 B(  8-Pb, 10-Cl) :   0.6409 
B(  8-Pb, 11-Cl) :   0.6992 


-------
TIMINGS
-------

Total time                :  434.721 sec
Integral trafo            :    1.865 sec (  0.4%)
I/O of integrals          :    0.103 sec (  0.0%)
K(i,j) Operators          :    5.475 sec (  1.3%)
T(i,j) pair energies      :    1.022 sec (  0.2%)
V-calculation             :    0.010 sec (  0.0%)
V**(-1/2)                 :    0.020 sec (  0.0%)
Gamma(ia|P)               :    5.133 sec (  1.2%)
Gamma-Trafo               :    0.714 sec (  0.2%)
D(virtual)                :    2.351 sec (  0.5%)
D(internal)               :    3.368 sec (  0.8%)
W(virtual)                :    4.701 sec (  1.1%)
W(internal)               :   10.846 sec (  2.5%)
L(virtual)                :    4.112 sec (  0.9%)
L(internal)               :    0.200 sec (  0.0%)
G(D)                      :   13.484 sec (  3.1%)
G(Z)                      :   13.649 sec (  3.1%)
Z-Vector Solution         :  265.365 sec ( 61.0%)
Z-Vector Solution         :  265.365 sec ( 61.0%)
3-Index Derivative 
+ Separable RIJ part      :    3.939 sec (  0.9%)
2-Index Derivative 
+ Separable RIJ part      :    0.025 sec (  0.0%)
Separable Gradient (COSX) :   95.994 sec ( 22.1%)


---------------------------------------
MP2 TOTAL ENERGY:    -1669.601193787 Eh
---------------------------------------

The final MP2 gradient
  0:  -0.00016024   0.00083647  -0.00061421
  1:   0.00046456   0.00160109  -0.01751018
  2:   0.00265847  -0.00216039   0.00291133
  3:  -0.00261249   0.00242575   0.00283318
  4:   0.00277560   0.00335584  -0.00194611
  5:  -0.01211084  -0.00977135   0.00046118
  6:  -0.00623918  -0.01070220  -0.00576761
  7:  -0.00287067  -0.00684135  -0.00801658
  8:   0.03327710   0.03504915   0.04245348
  9:  -0.02053418  -0.00216845   0.00779174
 10:   0.00926007  -0.01514392  -0.00089530
 11:  -0.00347714   0.00393563  -0.02277680

-----------------------------------
NORM OF THE MP2 GRADIENT:  0.080063
-----------------------------------

Entering the calculation of the dispersion correction...

Checking the input atom types...

Done


-------------------------------------------------------------------------------
                          DFT DISPERSION CORRECTION                            
                                                                               
                                DFTD3 V2.1  Rev 6                               
                          USING Becke-Johnson damping                          
-------------------------------------------------------------------------------
The B2PLYP functional is recognized
Active option DFTDOPT                   ...         4   

molecular C6(AA) [au] = 4847.160481 


            DFT-D V3
 parameters
 s6 scaling factor         :     0.6400 
 a1 scaling factor         :     0.3065 
 s8 scaling factor         :     0.9147 
 a2 scaling factor         :     5.0570 
 ad hoc parameters k1-k3   :    16.0000     1.3333    -4.0000 

 Edisp/kcal,au: -9.168699321897  -0.014611250862 
 E6   /kcal   :  -4.205807013 
 E8   /kcal   :  -4.962892309 
 % E8         :  54.128640659 

-------------------------   ----------------
Dispersion correction           -0.014611251
-------------------------   ----------------


-------------------------   --------------------
FINAL SINGLE POINT ENERGY     -1669.615805037555
-------------------------   --------------------


                            ***************************************
                            *     ORCA property calculations      *
                            ***************************************


  WARNING: The energy has been calculated at the MP2 level but the densities
           used in the property calculations are still SCF densities
           MP2 response densities have not been calculated 
           use %mp2 Density relaxed end
           or  %mp2 Density unrelaxed end

                                    ---------------------
                                    Active property flags
                                    ---------------------
   (+) Dipole Moment


------------------------------------------------------------------------------
                       ORCA ELECTRIC PROPERTIES CALCULATION
------------------------------------------------------------------------------

Dipole Moment Calculation                       ... on
Quadrupole Moment Calculation                   ... off
Polarizability Calculation                      ... off
GBWName                                         ... PbMACl3_mp2_md2_20.orca.gbw
Electron density file                           ... PbMACl3_mp2_md2_20.orca.scfp.tmp

-------------
DIPOLE MOMENT
-------------
                                X             Y             Z
Electronic contribution:    -57.94059     -74.56445     -71.46299
Nuclear contribution   :     58.70968      75.57972      72.44798
                        -----------------------------------------
Total Dipole Moment    :      0.76909       1.01527       0.98499
                        -----------------------------------------
Magnitude (a.u.)       :      1.61011
Magnitude (Debye)      :      4.09258


                         *** MP2 UNRELAXED DENSITY ***

------------------------------------------------------------------------------
                       ORCA ELECTRIC PROPERTIES CALCULATION
------------------------------------------------------------------------------

Dipole Moment Calculation                       ... on
Quadrupole Moment Calculation                   ... off
Polarizability Calculation                      ... off
GBWName                                         ... PbMACl3_mp2_md2_20.orca.gbw
Electron density file                           ... PbMACl3_mp2_md2_20.orca.pmp2ur

-------------
DIPOLE MOMENT
-------------
                                X             Y             Z
Electronic contribution:    -57.93816     -74.56135     -71.46024
Nuclear contribution   :     58.70968      75.57972      72.44798
                        -----------------------------------------
Total Dipole Moment    :      0.77152       1.01837       0.98774
                        -----------------------------------------
Magnitude (a.u.)       :      1.61492
Magnitude (Debye)      :      4.10479


                           *** MP2 RELAXED DENSITY ***

------------------------------------------------------------------------------
                       ORCA ELECTRIC PROPERTIES CALCULATION
------------------------------------------------------------------------------

Dipole Moment Calculation                       ... on
Quadrupole Moment Calculation                   ... off
Polarizability Calculation                      ... off
GBWName                                         ... PbMACl3_mp2_md2_20.orca.gbw
Electron density file                           ... PbMACl3_mp2_md2_20.orca.pmp2re

-------------
DIPOLE MOMENT
-------------
                                X             Y             Z
Electronic contribution:    -57.96679     -74.59557     -71.49679
Nuclear contribution   :     58.70968      75.57972      72.44798
                        -----------------------------------------
Total Dipole Moment    :      0.74289       0.98415       0.95119
                        -----------------------------------------
Magnitude (a.u.)       :      1.55730
Magnitude (Debye)      :      3.95835


Timings for individual modules:

Sum of individual times         ...      718.806 sec (=  11.980 min)
GTO integral calculation        ...        0.569 sec (=   0.009 min)   0.1 %
SCF iterations                  ...      283.372 sec (=   4.723 min)  39.4 %
MP2 module                      ...      434.865 sec (=   7.248 min)  60.5 %
                             ****ORCA TERMINATED NORMALLY****
TOTAL RUN TIME: 0 days 0 hours 12 minutes 0 seconds 86 msec
