
                                 *****************
                                 * O   R   C   A *
                                 *****************

           --- An Ab Initio, DFT and Semiempirical electronic structure package ---

                  #######################################################
                  #                        -***-                        #
                  #  Department of molecular theory and spectroscopy    #
                  #              Directorship: Frank Neese              #
                  # Max Planck Institute for Chemical Energy Conversion #
                  #                  D-45470 Muelheim/Ruhr              #
                  #                       Germany                       #
                  #                                                     #
                  #                  All rights reserved                #
                  #                        -***-                        #
                  #######################################################


                         Program Version 3.0.3 - RELEASE   -


 With contributions from (in alphabetic order):
   Ute Becker             : Parallelization
   Dmytro Bykov           : SCF Hessian
   Dmitry Ganyushin       : Spin-Orbit,Spin-Spin,Magnetic field MRCI
   Andreas Hansen         : Spin unrestricted coupled pair/coupled cluster methods
   Dimitrios Liakos       : Extrapolation schemes; parallel MDCI
   Robert Izsak           : Overlap fitted RIJCOSX, COSX-SCS-MP3
   Christian Kollmar      : KDIIS, OOCD, Brueckner-CCSD(T), CCSD density
   Simone Kossmann        : Meta GGA functionals, TD-DFT gradient, OOMP2, MP2 Hessian
   Taras Petrenko         : DFT Hessian,TD-DFT gradient, ASA and ECA modules, normal mode analysis, Resonance Raman, ABS, FL, XAS/XES, NRVS
   Christoph Reimann      : Effective Core Potentials
   Michael Roemelt        : Restricted open shell CIS
   Christoph Riplinger    : Improved optimizer, TS searches, QM/MM, DLPNO-CCSD
   Barbara Sandhoefer     : DKH picture change effects
   Igor Schapiro          : Molecular dynamics
   Kantharuban Sivalingam : CASSCF convergence, NEVPT2
   Boris Wezisla          : Elementary symmetry handling
   Frank Wennmohs         : Technical directorship


 We gratefully acknowledge several colleagues who have allowed us to
 interface, adapt or use parts of their codes:
   Stefan Grimme, W. Hujo, H. Kruse, T. Risthaus : VdW corrections, initial TS optimization,
                                                   DFT functionals, gCP
   Ed Valeev                                     : LibInt (2-el integral package), F12 methods
   Garnet Chan, S. Sharma, R. Olivares           : DMRG
   Ulf Ekstrom                                   : XCFun DFT Library
   Mihaly Kallay                                 : mrcc  (arbitrary order and MRCC methods)
   Andreas Klamt, Michael Diedenhofen            : otool_cosmo (COSMO solvation model)
   Frank Weinhold                                : gennbo (NPA and NBO analysis)
   Christopher J. Cramer and Donald G. Truhlar   : smd solvation model


 Your calculation uses the libint2 library for the computation of 2-el integrals
 For citations please refer to: http://libint.valeyev.net

 This ORCA versions uses:
   CBLAS   interface :  Fast vector & matrix operations
   LAPACKE interface :  Fast linear algebra routines
   SCALAPACK package :  Parallel linear algebra routines


Your calculation utilizes the basis: Ahlrichs-TZV
Cite in your paper:
H - Kr: A. Schaefer, H. Horn and R. Ahlrichs, J. Chem. Phys. 97, 2571 (1992).

The def2-TZV basis will be loaded
Cite in your paper:
 	F. Weigend, R. Ahlrichs, Phys. Chem. Chem. Phys. 2005, 7, 3297.

Your calculation utilizes the atom-pairwise dispersion correction
with the Becke-Johnson damping scheme (D3BJ)
Cite in your paper:
S.Grimme, S.Ehrlich, L.Goerigk, J Comput Chem, (2011), 32, 1456–1465 
S.Grimme, J.Antony, S.Ehrlich and H.Krieg, J.Chem.Phys., 132, (2010), 154104 
   

================================================================================
                                        WARNINGS
                       Please study these warnings very carefully!
================================================================================

WARNING: The RI method has been chosen with no auxiliary basis (AUX or GTOAUX in BASIS block)
        Standard TZV/J expansion basis used (GTOAUX=TZV_J)

Now building the actual basis set
cite the ECPs for Pb [SD(60,MDF)] as follows:
  B. Metz, H. Stoll, M. Dolg, J. Chem. Phys. 113, 2563 (2000).

ECP parameters for Pb [SD(60,MDF)] have been obtained from:
  pseudopotential library of the Stuttgart/Cologne group
  http://www.theochem.uni-stuttgart.de/pseudopotentials/

cite the ECP basis sets for Pb [DEF2-TZVP] as follows:
  F. Weigend, R. Ahlrichs; Phys. Chem. Chem. Phys. 7, 3297(2005).

ECP basis sets for Pb [DEF2-TZVP] have been obtained from:
  Turbomole basis set library
  ftp://ftp.chemie.uni-karlsruhe.de/pub/basen/



INFO   : the flag for use of LIBINT has been found!

================================================================================
                                       INPUT FILE
================================================================================
NAME = PbMACl3_mp2_md_21.orca
|  1> ! RIJCOSX RI-B2PLYP D3BJ def2-TZVP ECP{def2-TZVP} TIGHTSCF Grid5 FinalGrid6 SlowConv MORead
|  2> %method
|  3>  RunTyp Gradient
|  4>  end
|  5> %maxcore 1000
|  6> %moinp "previous.gbw"
|  7> *xyz 0 1
|  8> C -0.972309 -0.086781 -1.068430 
|  9> N -0.852621 -0.992690 0.119681 
| 10> H -1.301400 -0.700870 0.848219 
| 11> H 0.125724 -1.194750 0.464925 
| 12> H -1.256140 -1.976770 -0.056578 
| 13> H -0.737102 0.968694 -0.883871 
| 14> H -1.907180 -0.178723 -1.631090 
| 15> H -0.242529 -0.361781 -1.794900 
| 16> Pb -3.072840 -2.646350 -2.485130 
| 17> Cl -0.692641 -3.104970 -1.943900 
| 18> Cl -3.390050 -0.430924 -3.492640 
| 19> Cl -4.451000 -2.862150 -0.307764 
| 20> *
| 21> 
| 22>                          ****END OF INPUT****
================================================================================

                     *******************************
                     * Energy+Gradient Calculation *
                     *******************************

---------------------------------
CARTESIAN COORDINATES (ANGSTROEM)
---------------------------------
  C     -0.972309   -0.086781   -1.068430
  N     -0.852621   -0.992690    0.119681
  H     -1.301400   -0.700870    0.848219
  H      0.125724   -1.194750    0.464925
  H     -1.256140   -1.976770   -0.056578
  H     -0.737102    0.968694   -0.883871
  H     -1.907180   -0.178723   -1.631090
  H     -0.242529   -0.361781   -1.794900
  Pb    -3.072840   -2.646350   -2.485130
  Cl    -0.692641   -3.104970   -1.943900
  Cl    -3.390050   -0.430924   -3.492640
  Cl    -4.451000   -2.862150   -0.307764

----------------------------
CARTESIAN COORDINATES (A.U.)
----------------------------
  NO LB      ZA    FRAG    MASS        X           Y           Z
   0 C     6.0000    0    12.011         -1.837397727546838         -0.163992323627820         -2.019040093265483
   1 N     7.0000    0    14.007         -1.611220186030071         -1.875912235882287          0.226164313433829
   2 H     1.0000    0     1.008         -2.459289590685117         -1.324452355481388          1.602901611588550
   3 H     1.0000    0     1.008          0.237583928461115         -2.257750298502415          0.878580922813338
   4 H     1.0000    0     1.008         -2.373760585863841         -3.735553929751513         -0.106916925204997
   5 H     1.0000    0     1.008         -1.392920912765623          1.830566367572713         -1.670274127715111
   6 H     1.0000    0     1.008         -3.604047888091933         -0.337737523832808         -3.082313399777614
   7 H     1.0000    0     1.008         -0.458313389533787         -0.683667010456164         -3.391869437775255
   8 Pb   22.0000*   0   207.200  -5.806826053358579  -5.000876754502504  -4.696215107191720
   9 Cl   17.0000    0    35.453         -1.308901799125350         -5.867542954041468         -3.673438631729521
  10 Cl   17.0000    0    35.453         -6.406266080299739         -0.814328344533881         -6.600133084378720
  11 Cl   17.0000    0    35.453         -8.411171022083490         -5.408679654202711         -0.581589673880140
* core charge reduced due to ECP

--------------------------------
INTERNAL COORDINATES (ANGSTROEM)
--------------------------------
 C      0   0   0   0.000000     0.000     0.000
 N      1   0   0   1.498868     0.000     0.000
 H      2   1   0   0.904063   113.831     0.000
 H      2   1   3   1.056968   116.639   237.516
 H      2   1   3   1.078104   113.092   118.310
 H      1   2   3   1.097001   115.533    51.496
 H      1   2   3   1.094999   115.134   280.734
 H      1   2   3   1.065815   109.249   166.362
 Pb     7   1   2   2.859603   125.025   311.997
 Cl     5   2   1   2.269879   119.782    48.054
 Cl     7   1   2   2.393298   159.638   229.604
 Cl     9   7   1   2.585888    92.166    90.537

---------------------------
INTERNAL COORDINATES (A.U.)
---------------------------
 C      0   0   0   0.000000     0.000     0.000
 N      1   0   0   2.832449     0.000     0.000
 H      2   1   0   1.708431   113.831     0.000
 H      2   1   3   1.997379   116.639   237.516
 H      2   1   3   2.037321   113.092   118.310
 H      1   2   3   2.073032   115.533    51.496
 H      1   2   3   2.069249   115.134   280.734
 H      1   2   3   2.014099   109.249   166.362
 Pb     7   1   2   5.403867   125.025   311.997
 Cl     5   2   1   4.289450   119.782    48.054
 Cl     7   1   2   4.522679   159.638   229.604
 Cl     9   7   1   4.886620    92.166    90.537

---------------------
BASIS SET INFORMATION
---------------------
There are 5 groups of distinct atoms

 Group   1 Type C   : 11s6p2d1f contracted to 5s3p2d1f pattern {62111/411/11/1}
 Group   2 Type N   : 11s6p2d1f contracted to 5s3p2d1f pattern {62111/411/11/1}
 Group   3 Type H   : 5s1p contracted to 3s1p pattern {311/1}
 Group   4 Type Pb  : 10s9p8d2f contracted to 6s5p3d2f pattern {421111/33111/611/11}
 Group   5 Type Cl  : 14s9p3d1f contracted to 5s5p2d1f pattern {73211/51111/21/1}

Atom   0C    basis set group =>   1
Atom   1N    basis set group =>   2
Atom   2H    basis set group =>   3
Atom   3H    basis set group =>   3
Atom   4H    basis set group =>   3
Atom   5H    basis set group =>   3
Atom   6H    basis set group =>   3
Atom   7H    basis set group =>   3
Atom   8Pb   basis set group =>   4
Atom   9Cl   basis set group =>   5
Atom  10Cl   basis set group =>   5
Atom  11Cl   basis set group =>   5
-------------------------------
AUXILIARY BASIS SET INFORMATION
-------------------------------
There are 5 groups of distinct atoms

 Group   1 Type C   : 12s5p4d2f1g contracted to 6s4p3d1f1g pattern {711111/2111/211/2/1}
 Group   2 Type N   : 12s5p4d2f1g contracted to 6s4p3d1f1g pattern {711111/2111/211/2/1}
 Group   3 Type H   : 5s2p1d contracted to 3s1p1d pattern {311/2/1}
 Group   4 Type Pb  : 31s12p8d6f3g contracted to 31s12p8d6f3g pattern {1111111111111111111111111111111/111111111111/11111111/111111/111}
 Group   5 Type Cl  : 14s5p5d2f1g contracted to 8s4p3d1f1g pattern {71111111/2111/311/2/1}

Atom   0C    basis set group =>   1
Atom   1N    basis set group =>   2
Atom   2H    basis set group =>   3
Atom   3H    basis set group =>   3
Atom   4H    basis set group =>   3
Atom   5H    basis set group =>   3
Atom   6H    basis set group =>   3
Atom   7H    basis set group =>   3
Atom   8Pb   basis set group =>   4
Atom   9Cl   basis set group =>   5
Atom  10Cl   basis set group =>   5
Atom  11Cl   basis set group =>   5

-------------------------
ECP PARAMETER INFORMATION
-------------------------

 Group 1, Type Pb ECP SD(60,MDF) (replacing 60 core electrons, lmax=5)

Atom   8Pb   ECP group =>   1


------------------------------------------------------------------------------
                           ORCA GTO INTEGRAL CALCULATION
                           -- RI-GTO INTEGRALS CHOSEN --
------------------------------------------------------------------------------

                         BASIS SET STATISTICS AND STARTUP INFO

Gaussian basis set:
 # of primitive gaussian shells          ...  186
 # of primitive gaussian functions       ...  420
 # of contracted shells                  ...  101
 # of contracted basis functions         ...  259
 Highest angular momentum                ...    3
 Maximum contraction depth               ...    7
Auxiliary gaussian basis set:
 # of primitive gaussian shells          ...  237
 # of primitive gaussian functions       ...  643
 # of contracted shells                  ...  171
 # of contracted aux-basis functions     ...  493
 Highest angular momentum                ...    4
 Maximum contraction depth               ...    7
Ratio of auxiliary to basis functions    ...  1.90
Integral package used                  ... LIBINT
 One Electron integrals                  
   ECP integrals                         ... done
 Ordering auxiliary basis shells         ... done
 Integral threshhold             Thresh  ...  2.500e-11
 Primitive cut-off               TCut    ...  2.500e-12
 Pre-screening matrix                    ... done
 Shell pair data                         ... 
 Ordering of the shell pairs             ... done (   0.001 sec) 4439 of 5151 pairs
 Determination of significant pairs      ... done (   0.000 sec)
 Creation of shell pair data             ... done (   0.001 sec)
 Storage of shell pair data              ... done (   0.001 sec)
 Shell pair data done in (   0.003 sec)
 Computing two index integrals           ... done
 Cholesky decomposition of the V-matrix  ... done


Timings:
 Total evaluation time                   ...   0.490 sec (  0.008 min)
 One electron matrix time                ...   0.267 sec (  0.004 min) = 54.5%
 Schwartz matrix evaluation time         ...   0.183 sec (  0.003 min) = 37.4%
 Two index repulsion integral time       ...   0.007 sec (  0.000 min) =  1.4%
 Cholesky decomposition of V             ...   0.006 sec (  0.000 min) =  1.2%
 Three index repulsion integral time     ...   0.000 sec (  0.000 min) =  0.0%

-------------------------------------------------------------------------------
                                 ORCA SCF
-------------------------------------------------------------------------------

------------
SCF SETTINGS
------------
Hamiltonian:
 Density Functional     Method          .... DFT(GTOs)
 Exchange Functional    Exchange        .... B88
   X-Alpha parameter    XAlpha          ....  0.666667
   Becke's b parameter  XBeta           ....  0.004200
 Correlation Functional Correlation     .... LYP
 LDA part of GGA corr.  LDAOpt          .... VWN-3
 Gradients option       PostSCFGGA      .... off
 Hybrid DFT is turned on
   Fraction HF Exchange ScalHFX         ....  0.530000
   Scaling of DF-GGA-X  ScalDFX         ....  0.470000
   Scaling of DF-GGA-C  ScalDFC         ....  0.730000
   Scaling of DF-LDA-C  ScalLDAC        ....  0.730000
   Perturbative correction              ....  0.270000
 RI-approximation to the Coulomb term is turned on
   Number of auxiliary basis functions  .... 493
   RIJ-COSX (HFX calculated with COS-X)).... on


General Settings:
 Integral files         IntName         .... PbMACl3_mp2_md_21.orca
 Hartree-Fock type      HFTyp           .... RHF
 Total Charge           Charge          ....    0
 Multiplicity           Mult            ....    1
 Number of Electrons    NEL             ....   92
 Basis Dimension        Dim             ....  259
 Nuclear Repulsion      ENuc            ....    595.5276141526 Eh

Convergence Acceleration:
 DIIS                   CNVDIIS         .... on
   Start iteration      DIISMaxIt       ....     0
   Startup error        DIISStart       ....  0.200000
   # of expansion vecs  DIISMaxEq       ....     5
   Bias factor          DIISBfac        ....   1.050
   Max. coefficient     DIISMaxC        ....  10.000
 Newton-Raphson         CNVNR           .... off
 SOSCF                  CNVSOSCF        .... on
   Start iteration      SOSCFMaxIt      ....   150
   Startup grad/error   SOSCFStart      ....  0.001000
 Level Shifting         CNVShift        .... on
   Level shift para.    LevelShift      ....    0.2500
   Turn off err/grad.   ShiftErr        ....    0.0000
 Zerner damping         CNVZerner       .... off
 Static damping         CNVDamp         .... on
   Fraction old density DampFac         ....    0.8500
   Max. Damping (<1)    DampMax         ....    0.9800
   Min. Damping (>=0)   DampMin         ....    0.0000
   Turn off err/grad.   DampErr         ....    0.0300
 Fernandez-Rico         CNVRico         .... off

SCF Procedure:
 Maximum # iterations   MaxIter         ....   125
 SCF integral mode      SCFMode         .... Direct
   Integral package                     .... LIBINT
 Reset frequeny         DirectResetFreq ....    20
 Integral Threshold     Thresh          ....  2.500e-11 Eh
 Primitive CutOff       TCut            ....  2.500e-12 Eh

Convergence Tolerance:
 Convergence Check Mode ConvCheckMode   .... Total+1el-Energy
 Energy Change          TolE            ....  1.000e-08 Eh
 1-El. energy change                    ....  1.000e-05 Eh
 Orbital Gradient       TolG            ....  1.000e-05
 Orbital Rotation angle TolX            ....  1.000e-05
 DIIS Error             TolErr          ....  5.000e-07


Diagonalization of the overlap matrix:
Smallest eigenvalue                        ... 6.421e-04
Time for diagonalization                   ...    0.013 sec
Threshold for overlap eigenvalues          ... 1.000e-08
Number of eigenvalues below threshold      ... 0
Time for construction of square roots      ...    0.004 sec
Total time needed                          ...    0.017 sec

---------------------
INITIAL GUESS: MOREAD
---------------------
Guess MOs are being read from file: previous.gbw
Input geometry compatible with but different from current geometry
Input basis set matches current basis set (good)
MOs were renormalized
MOs were reorthogonalized (Schmidt)
                      ------------------
                      INITIAL GUESS DONE (   0.1 sec)
                      ------------------
-------------------
DFT GRID GENERATION
-------------------

General Integration Accuracy     IntAcc      ...  5.010
Radial Grid Type                 RadialGrid  ... Gauss-Chebyshev
Angular Grid (max. acc.)         AngularGrid ... Lebedev-434
Angular grid pruning method      GridPruning ... 3 (G Style)
Weight generation scheme         WeightScheme... Becke
Basis function cutoff            BFCut       ...    1.0000e-11
Integration weight cutoff        WCut        ...    1.0000e-14
Grids for H and He will be reduced by one unit

# of grid points (after initial pruning)     ... 115882 (   0.0 sec)
# of grid points (after weights+screening)   ... 108590 (   0.2 sec)
nearest neighbour list constructed           ...    0.0 sec
Grid point re-assignment to atoms done       ...    0.0 sec
Grid point division into batches done        ...    0.8 sec
Reduced shell lists constructed in    2.9 sec

Total number of grid points                  ...   108590
Total number of batches                      ...     1702
Average number of points per batch           ...       63
Average number of grid points per atom       ...     9049
Average number of shells per batch           ...    54.97 (54.43%)
Average number of basis functions per batch  ...   145.10 (56.02%)
Average number of large shells per batch     ...    41.48 (75.46%)
Average number of large basis fcns per batch ...   106.72 (73.55%)
Maximum spatial batch extension              ...  35.48, 33.48, 35.68 au
Average spatial batch extension              ...   2.39,  2.45,  2.47 au

Time for grid setup =    3.125 sec

--------------------
COSX GRID GENERATION
--------------------

General Integration Accuracy     IntAcc      ...  3.340
Radial Grid Type                 RadialGrid  ... Gauss-Chebyshev
Angular Grid (max. acc.)         AngularGrid ... Lebedev-50
Angular grid pruning method      GridPruning ... 3 (G Style)
Weight generation scheme         WeightScheme... Becke
Basis function cutoff            BFCut       ...    1.0000e-11
Integration weight cutoff        WCut        ...    1.0000e-14
Grids for H and He will be reduced by one unit

# of grid points (after initial pruning)     ...   6578 (   0.0 sec)
# of grid points (after weights+screening)   ...   6272 (   0.0 sec)
nearest neighbour list constructed           ...    0.0 sec
Grid point re-assignment to atoms done       ...    0.0 sec
Grid point division into batches done        ...    0.0 sec
Reduced shell lists constructed in    0.1 sec

Total number of grid points                  ...     6272
Total number of batches                      ...      104
Average number of points per batch           ...       60
Average number of grid points per atom       ...      523
Average number of shells per batch           ...    66.53 (65.87%)
Average number of basis functions per batch  ...   178.82 (69.04%)
Average number of large shells per batch     ...    51.71 (77.73%)
Average number of large basis fcns per batch ...   135.90 (76.00%)
Maximum spatial batch extension              ...  27.78, 36.84, 28.54 au
Average spatial batch extension              ...   6.03,  6.56,  6.44 au

Overlap Fitting                  UseSFitting ... on
Constructing numerical overlap ... done (      0.1 sec)
Inverting numerical overlap    ... done (      0.0 sec)
Obtaining analytic overlap     ... done (      0.0 sec)
Final contraction and storage  ... done (      0.0 sec)


General Integration Accuracy     IntAcc      ...  3.670
Radial Grid Type                 RadialGrid  ... Gauss-Chebyshev
Angular Grid (max. acc.)         AngularGrid ... Lebedev-50
Angular grid pruning method      GridPruning ... 3 (G Style)
Weight generation scheme         WeightScheme... Becke
Basis function cutoff            BFCut       ...    1.0000e-11
Integration weight cutoff        WCut        ...    1.0000e-14
Grids for H and He will be reduced by one unit

# of grid points (after initial pruning)     ...   8124 (   0.0 sec)
# of grid points (after weights+screening)   ...   7722 (   0.0 sec)
nearest neighbour list constructed           ...    0.0 sec
Grid point re-assignment to atoms done       ...    0.0 sec
Grid point division into batches done        ...    0.0 sec
Reduced shell lists constructed in    0.2 sec

Total number of grid points                  ...     7722
Total number of batches                      ...      129
Average number of points per batch           ...       59
Average number of grid points per atom       ...      644
Average number of shells per batch           ...    65.58 (64.93%)
Average number of basis functions per batch  ...   175.75 (67.86%)
Average number of large shells per batch     ...    50.94 (77.68%)
Average number of large basis fcns per batch ...   133.03 (75.69%)
Maximum spatial batch extension              ...  27.87, 38.45, 28.79 au
Average spatial batch extension              ...   5.54,  5.98,  5.86 au

Overlap Fitting                  UseSFitting ... on
Constructing numerical overlap ... done (      0.1 sec)
Inverting numerical overlap    ... done (      0.0 sec)
Obtaining analytic overlap     ... done (      0.0 sec)
Final contraction and storage  ... done (      0.0 sec)


General Integration Accuracy     IntAcc      ...  4.010
Radial Grid Type                 RadialGrid  ... Gauss-Chebyshev
Angular Grid (max. acc.)         AngularGrid ... Lebedev-110
Angular grid pruning method      GridPruning ... 3 (G Style)
Weight generation scheme         WeightScheme... Becke
Basis function cutoff            BFCut       ...    1.0000e-11
Integration weight cutoff        WCut        ...    1.0000e-14
Grids for H and He will be reduced by one unit

# of grid points (after initial pruning)     ...  15170 (   0.0 sec)
# of grid points (after weights+screening)   ...  14430 (   0.0 sec)
nearest neighbour list constructed           ...    0.0 sec
Grid point re-assignment to atoms done       ...    0.0 sec
Grid point division into batches done        ...    0.0 sec
Reduced shell lists constructed in    0.3 sec

Total number of grid points                  ...    14430
Total number of batches                      ...      230
Average number of points per batch           ...       62
Average number of grid points per atom       ...     1202
Average number of shells per batch           ...    62.32 (61.71%)
Average number of basis functions per batch  ...   166.84 (64.42%)
Average number of large shells per batch     ...    47.79 (76.68%)
Average number of large basis fcns per batch ...   125.06 (74.95%)
Maximum spatial batch extension              ...  34.29, 32.64, 32.72 au
Average spatial batch extension              ...   4.87,  5.00,  4.97 au

Overlap Fitting                  UseSFitting ... on
Constructing numerical overlap ... done (      0.2 sec)
Inverting numerical overlap    ... done (      0.0 sec)
Obtaining analytic overlap     ... done (      0.0 sec)
Final contraction and storage  ... done (      0.0 sec)

Time for X-Grid setup             =    1.199 sec
--------------
SCF ITERATIONS
--------------
ITER       Energy         Delta-E        Max-DP      RMS-DP      [F,P]     Damp
               ***  Starting incremental Fock matrix formation  ***
  0  -1664.0677042563   0.000000000000 0.11377050  0.00190697  0.5922712 0.8500
  1  -1664.7679331402  -0.700228883908 0.10570087  0.00175309  0.4496725 0.8500
                               ***Turning on DIIS***
  2  -1665.3594570506  -0.591523910338 0.08761816  0.00150629  0.3479170 0.8500
  3  -1665.8595572475  -0.500100196894 0.07070262  0.00127924  0.2790332 0.8500
  4  -1666.2907403000  -0.431183052578 0.05794868  0.00110496  0.2424668 0.8500
  5  -1666.6616240873  -0.370883787286 0.04811465  0.00096089  0.2101723 0.8500
  6  -1666.9832914603  -0.321667372940 0.04074171  0.00083127  0.1834340 0.8500
  7  -1667.2634056200  -0.280114159710 0.03491636  0.00071456  0.1598030 0.8500
  8  -1667.5071562961  -0.243750676126 0.03012096  0.00061069  0.1359785 0.8500
  9  -1667.7178316698  -0.210675373735 0.02575457  0.00052016  0.1149488 0.8500
 10  -1667.8992155487  -0.181383878828 0.02184760  0.00044279  0.0977912 0.8500
 11  -1668.0551210320  -0.155905483294 0.01850956  0.00037709  0.0836690 0.8500
 12  -1668.1889730006  -0.133851968669 0.01571251  0.00032124  0.0716081 0.8500
 13  -1668.3037463898  -0.114773389210 0.01336619  0.00027358  0.0610725 0.8500
 14  -1668.4020225896  -0.098276199789 0.01137166  0.00023287  0.0519476 0.8500
 15  -1668.4860695007  -0.084046911019 0.00966530  0.00019818  0.0441780 0.8500
 16  -1668.5578792319  -0.071809731202 0.00821010  0.00016867  0.0376056 0.8500
 17  -1668.6191875902  -0.061308358333 0.00697487  0.00014357  0.0320262 0.8500
 18  -1668.6714971378  -0.052309547644 0.03951937  0.00081476  0.0272651 0.0000
                      *** Initiating the SOSCF procedure ***
                           *** Shutting down DIIS ***
                      *** Re-Reading the Fockian *** 
                      *** Removing any level shift *** 
ITER      Energy       Delta-E        Grad      Rot      Max-DP    RMS-DP
 19  -1668.97140248  -0.2999053467  0.000389  0.000389  0.000426  0.000010
               *** Restarting incremental Fock matrix formation ***
 20  -1668.97146809  -0.0000656078  0.000129  0.000264  0.000380  0.000010
 21  -1668.97146858  -0.0000004857  0.000097  0.000106  0.000160  0.000003
 22  -1668.97146895  -0.0000003681  0.000019  0.000022  0.000064  0.000001
 23  -1668.97146896  -0.0000000122  0.000003  0.000013  0.000017  0.000000
 24  -1668.97146895   0.0000000064  0.000003  0.000002  0.000010  0.000000
                  ***Gradient check signals convergence***
              ***Rediagonalizing the Fockian in SOSCF/NRSCF***

               *****************************************************
               *                     SUCCESS                       *
               *           SCF CONVERGED AFTER  25 CYCLES          *
               *****************************************************

Old exchange energy                            =    -59.228667586 Eh
New exchange energy                            =    -59.231363933 Eh
Exchange energy change after final integration =     -0.002696347 Eh
Total energy after final integration           =  -1668.974165302 Eh
Final COS-X integration done in                =    17.537 sec

----------------
TOTAL SCF ENERGY
----------------

Total Energy       :        -1668.97416530 Eh          -45415.09590 eV

Components:
Nuclear Repulsion  :          595.52761415 Eh           16205.13023 eV
Electronic Energy  :        -2264.50177945 Eh          -61620.22613 eV

One Electron Energy:        -3562.15615893 Eh          -96931.19697 eV
Two Electron Energy:         1297.65437948 Eh           35310.97084 eV

Virial components:
Potential Energy   :        -3206.93589344 Eh          -87265.16214 eV
Kinetic Energy     :         1537.96172814 Eh           41850.06624 eV
Virial Ratio       :            2.08518576


DFT components:
N(Alpha)           :       45.999994911852 electrons
N(Beta)            :       45.999994911852 electrons
N(Total)           :       91.999989823704 electrons
E(X)               :      -52.599455852346 Eh       
E(C)               :       -2.608828710609 Eh       
E(XC)              :      -55.208284562955 Eh       

---------------
SCF CONVERGENCE
---------------

  Last Energy change         ...   -3.2562e-09  Tolerance :   1.0000e-08
  Last MAX-Density change    ...    4.7157e-14  Tolerance :   1.0000e-07
  Last RMS-Density change    ...    3.0629e-16  Tolerance :   5.0000e-09
  Last Orbital Gradient      ...    4.5830e-07  Tolerance :   1.0000e-05
  Last Orbital Rotation      ...    1.1334e-06  Tolerance :   1.0000e-05

             **** THE GBW FILE WAS UPDATED (PbMACl3_mp2_md_21.orca.gbw) ****
             **** DENSITY FILE WAS UPDATED (PbMACl3_mp2_md_21.orca.scfp.tmp) ****
             **** ENERGY FILE WAS UPDATED (PbMACl3_mp2_md_21.orca.en.tmp) ****
----------------
ORBITAL ENERGIES
----------------

  NO   OCC          E(Eh)            E(eV) 
   0   2.0000    -102.859736     -2798.9557 
   1   2.0000    -102.840751     -2798.4391 
   2   2.0000    -102.826432     -2798.0495 
   3   2.0000     -15.019094      -408.6903 
   4   2.0000     -10.713657      -291.5334 
   5   2.0000      -9.868680      -268.5404 
   6   2.0000      -9.848974      -268.0042 
   7   2.0000      -9.833102      -267.5723 
   8   2.0000      -7.505453      -204.2338 
   9   2.0000      -7.504056      -204.1958 
  10   2.0000      -7.503674      -204.1853 
  11   2.0000      -7.485957      -203.7032 
  12   2.0000      -7.484187      -203.6551 
  13   2.0000      -7.483990      -203.6497 
  14   2.0000      -7.470137      -203.2728 
  15   2.0000      -7.468517      -203.2287 
  16   2.0000      -7.468231      -203.2209 
  17   2.0000      -5.776737      -157.1930 
  18   2.0000      -3.549034       -96.5741 
  19   2.0000      -3.546998       -96.5187 
  20   2.0000      -3.546203       -96.4971 
  21   2.0000      -1.201242       -32.6875 
  22   2.0000      -0.956288       -26.0219 
  23   2.0000      -0.950712       -25.8702 
  24   2.0000      -0.942494       -25.6466 
  25   2.0000      -0.937399       -25.5079 
  26   2.0000      -0.936397       -25.4807 
  27   2.0000      -0.893020       -24.3003 
  28   2.0000      -0.880797       -23.9677 
  29   2.0000      -0.856821       -23.3153 
  30   2.0000      -0.837620       -22.7928 
  31   2.0000      -0.737476       -20.0677 
  32   2.0000      -0.703477       -19.1426 
  33   2.0000      -0.640333       -17.4243 
  34   2.0000      -0.550032       -14.9671 
  35   2.0000      -0.532508       -14.4903 
  36   2.0000      -0.521577       -14.1928 
  37   2.0000      -0.391924       -10.6648 
  38   2.0000      -0.378167       -10.2904 
  39   2.0000      -0.369298       -10.0491 
  40   2.0000      -0.352162        -9.5828 
  41   2.0000      -0.343522        -9.3477 
  42   2.0000      -0.336978        -9.1696 
  43   2.0000      -0.324302        -8.8247 
  44   2.0000      -0.319452        -8.6927 
  45   2.0000      -0.257111        -6.9963 
  46   0.0000      -0.016212        -0.4411 
  47   0.0000       0.001332         0.0363 
  48   0.0000       0.049550         1.3483 
  49   0.0000       0.057079         1.5532 
  50   0.0000       0.062420         1.6985 
  51   0.0000       0.069943         1.9032 
  52   0.0000       0.091957         2.5023 
  53   0.0000       0.109000         2.9660 
  54   0.0000       0.130717         3.5570 
  55   0.0000       0.148877         4.0511 
  56   0.0000       0.155928         4.2430 
  57   0.0000       0.168035         4.5725 
  58   0.0000       0.177285         4.8242 
  59   0.0000       0.206310         5.6140 
  60   0.0000       0.222257         6.0479 
  61   0.0000       0.247425         6.7328 
  62   0.0000       0.261245         7.1088 
  63   0.0000       0.268443         7.3047 
  64   0.0000       0.288380         7.8472 
  65   0.0000       0.291603         7.9349 
  66   0.0000       0.304490         8.2856 
  67   0.0000       0.322884         8.7861 
  68   0.0000       0.337346         9.1796 
  69   0.0000       0.354569         9.6483 
  70   0.0000       0.380696        10.3593 
  71   0.0000       0.416356        11.3296 
  72   0.0000       0.420049        11.4301 
  73   0.0000       0.428483        11.6596 
  74   0.0000       0.440146        11.9770 
  75   0.0000       0.446476        12.1492 
  76   0.0000       0.456723        12.4281 
  77   0.0000       0.464921        12.6511 
  78   0.0000       0.475507        12.9392 
  79   0.0000       0.480223        13.0675 
  80   0.0000       0.488195        13.2845 
  81   0.0000       0.494149        13.4465 
  82   0.0000       0.500586        13.6216 
  83   0.0000       0.504949        13.7404 
  84   0.0000       0.515297        14.0219 
  85   0.0000       0.527523        14.3546 
  86   0.0000       0.536322        14.5941 
  87   0.0000       0.544298        14.8111 
  88   0.0000       0.563624        15.3370 
  89   0.0000       0.574731        15.6392 
  90   0.0000       0.576088        15.6762 
  91   0.0000       0.590467        16.0674 
  92   0.0000       0.591259        16.0890 
  93   0.0000       0.615776        16.7561 
  94   0.0000       0.622857        16.9488 
  95   0.0000       0.629264        17.1232 
  96   0.0000       0.641677        17.4609 
  97   0.0000       0.660905        17.9842 
  98   0.0000       0.669086        18.2068 
  99   0.0000       0.699527        19.0351 
 100   0.0000       0.705531        19.1985 
 101   0.0000       0.732896        19.9431 
 102   0.0000       0.743105        20.2209 
 103   0.0000       0.778486        21.1837 
 104   0.0000       0.790415        21.5083 
 105   0.0000       0.825969        22.4758 
 106   0.0000       0.867832        23.6149 
 107   0.0000       0.878548        23.9065 
 108   0.0000       0.895061        24.3559 
 109   0.0000       0.907510        24.6946 
 110   0.0000       0.915808        24.9204 
 111   0.0000       0.919841        25.0302 
 112   0.0000       0.930930        25.3319 
 113   0.0000       0.945145        25.7187 
 114   0.0000       0.959622        26.1126 
 115   0.0000       0.995410        27.0865 
 116   0.0000       1.011881        27.5347 
 117   0.0000       1.030493        28.0411 
 118   0.0000       1.099775        29.9264 
 119   0.0000       1.103671        30.0324 
 120   0.0000       1.108414        30.1615 
 121   0.0000       1.132111        30.8063 
 122   0.0000       1.150811        31.3152 
 123   0.0000       1.184718        32.2378 
 124   0.0000       1.200581        32.6695 
 125   0.0000       1.257299        34.2128 
 126   0.0000       1.287241        35.0276 
 127   0.0000       1.312327        35.7102 
 128   0.0000       1.326630        36.0994 
 129   0.0000       1.356691        36.9174 
 130   0.0000       1.401545        38.1380 
 131   0.0000       1.525506        41.5111 
 132   0.0000       1.544192        42.0196 
 133   0.0000       1.596148        43.4334 
 134   0.0000       1.654894        45.0320 
 135   0.0000       1.685665        45.8693 
 136   0.0000       1.725734        46.9596 
 137   0.0000       1.771963        48.2176 
 138   0.0000       1.803050        49.0635 
 139   0.0000       1.851068        50.3701 
 140   0.0000       1.878678        51.1214 
 141   0.0000       1.896969        51.6191 
 142   0.0000       1.907461        51.9047 
 143   0.0000       1.935020        52.6546 
 144   0.0000       1.946991        52.9803 
 145   0.0000       1.954383        53.1815 
 146   0.0000       1.959166        53.3116 
 147   0.0000       1.976718        53.7892 
 148   0.0000       1.980286        53.8863 
 149   0.0000       1.996473        54.3268 
 150   0.0000       2.015135        54.8346 
 151   0.0000       2.021112        54.9972 
 152   0.0000       2.034598        55.3642 
 153   0.0000       2.062485        56.1231 
 154   0.0000       2.073601        56.4256 
 155   0.0000       2.087573        56.8057 
 156   0.0000       2.099205        57.1223 
 157   0.0000       2.116659        57.5972 
 158   0.0000       2.122302        57.7508 
 159   0.0000       2.137690        58.1695 
 160   0.0000       2.149293        58.4852 
 161   0.0000       2.161989        58.8307 
 162   0.0000       2.171101        59.0787 
 163   0.0000       2.187037        59.5123 
 164   0.0000       2.190938        59.6185 
 165   0.0000       2.201344        59.9016 
 166   0.0000       2.208229        60.0890 
 167   0.0000       2.235358        60.8272 
 168   0.0000       2.243653        61.0529 
 169   0.0000       2.253975        61.3338 
 170   0.0000       2.255567        61.3771 
 171   0.0000       2.266279        61.6686 
 172   0.0000       2.269746        61.7629 
 173   0.0000       2.281451        62.0814 
 174   0.0000       2.282731        62.1163 
 175   0.0000       2.284491        62.1642 
 176   0.0000       2.297194        62.5098 
 177   0.0000       2.301362        62.6232 
 178   0.0000       2.311145        62.8894 
 179   0.0000       2.325604        63.2829 
 180   0.0000       2.344589        63.7995 
 181   0.0000       2.358327        64.1733 
 182   0.0000       2.380792        64.7846 
 183   0.0000       2.386062        64.9280 
 184   0.0000       2.399953        65.3060 
 185   0.0000       2.413000        65.6611 
 186   0.0000       2.416308        65.7511 
 187   0.0000       2.430830        66.1462 
 188   0.0000       2.435213        66.2655 
 189   0.0000       2.440442        66.4078 
 190   0.0000       2.459240        66.9193 
 191   0.0000       2.464427        67.0605 
 192   0.0000       2.470756        67.2327 
 193   0.0000       2.479003        67.4571 
 194   0.0000       2.497002        67.9469 
 195   0.0000       2.519708        68.5647 
 196   0.0000       2.553739        69.4908 
 197   0.0000       2.562277        69.7231 
 198   0.0000       2.583824        70.3094 
 199   0.0000       2.590550        70.4924 
 200   0.0000       2.624353        71.4123 
 201   0.0000       2.627133        71.4879 
 202   0.0000       2.666562        72.5608 
 203   0.0000       2.701955        73.5239 
 204   0.0000       2.709274        73.7231 
 205   0.0000       2.734665        74.4140 
 206   0.0000       2.758230        75.0552 
 207   0.0000       2.774183        75.4894 
 208   0.0000       2.882967        78.4495 
 209   0.0000       2.892047        78.6966 
 210   0.0000       2.920189        79.4624 
 211   0.0000       3.071955        83.5921 
 212   0.0000       3.105053        84.4928 
 213   0.0000       3.133152        85.2574 
 214   0.0000       3.208732        87.3140 
 215   0.0000       3.239669        88.1559 
 216   0.0000       3.283392        89.3456 
 217   0.0000       3.343110        90.9707 
 218   0.0000       3.471389        94.4613 
 219   0.0000       3.485889        94.8559 
 220   0.0000       3.617999        98.4508 
 221   0.0000       3.648146        99.2711 
 222   0.0000       3.710872       100.9780 
 223   0.0000       3.789753       103.1244 
 224   0.0000       3.885001       105.7163 
 225   0.0000       4.243720       115.4775 
 226   0.0000       4.313856       117.3860 
 227   0.0000       4.328543       117.7856 
 228   0.0000       4.451627       121.1349 
 229   0.0000       4.751460       129.2938 
 230   0.0000       4.795079       130.4807 
 231   0.0000       4.831666       131.4763 
 232   0.0000       4.915224       133.7500 
 233   0.0000       4.986055       135.6775 
 234   0.0000       5.019803       136.5958 
 235   0.0000       5.149662       140.1294 
 236   0.0000       5.217935       141.9872 
 237   0.0000       5.428640       147.7208 
 238   0.0000       5.530198       150.4843 
 239   0.0000       5.997182       163.1916 
 240   0.0000      11.063320       301.0482 
 241   0.0000      11.068012       301.1759 
 242   0.0000      11.087809       301.7146 
 243   0.0000      11.093685       301.8745 
 244   0.0000      11.103926       302.1532 
 245   0.0000      11.129856       302.8588 
 246   0.0000      11.190057       304.4969 
 247   0.0000      11.212399       305.1049 
 248   0.0000      11.239971       305.8552 
 249   0.0000      22.675960       617.0442 
 250   0.0000      25.158991       684.6109 
 251   0.0000      25.328548       689.2248 
 252   0.0000      25.338313       689.4905 
 253   0.0000      32.302771       879.0031 
 254   0.0000      35.600750       968.7457 
 255   0.0000      35.807993       974.3850 
 256   0.0000      35.875740       976.2285 
 257   0.0000      35.918792       977.4000 
 258   0.0000     123.654656      3364.8143 

                    ********************************
                    * MULLIKEN POPULATION ANALYSIS *
                    ********************************

-----------------------
MULLIKEN ATOMIC CHARGES
-----------------------
   0 C :   -0.287880
   1 N :   -0.272039
   2 H :    0.247333
   3 H :    0.306272
   4 H :    0.323195
   5 H :    0.166401
   6 H :    0.192251
   7 H :    0.188051
   8 Pb:    0.810680
   9 Cl:   -0.570230
  10 Cl:   -0.528114
  11 Cl:   -0.575921
Sum of atomic charges:   -0.0000000

--------------------------------
MULLIKEN REDUCED ORBITAL CHARGES
--------------------------------
  0 C s       :     3.257105  s :     3.257105
      pz      :     0.831830  p :     2.962339
      px      :     1.166409
      py      :     0.964100
      dz2     :     0.010875  d :     0.062630
      dxz     :     0.016238
      dyz     :     0.015005
      dx2y2   :     0.014692
      dxy     :     0.005822
      f0      :     0.000824  f :     0.005805
      f+1     :     0.000351
      f-1     :     0.001586
      f+2     :     0.001694
      f-2     :     0.000677
      f+3     :     0.000317
      f-3     :     0.000355
  1 N s       :     3.410647  s :     3.410647
      pz      :     1.251264  p :     3.812856
      px      :     1.262554
      py      :     1.299038
      dz2     :     0.011583  d :     0.046341
      dxz     :     0.012575
      dyz     :     0.005964
      dx2y2   :     0.009727
      dxy     :     0.006493
      f0      :     0.000193  f :     0.002196
      f+1     :     0.000299
      f-1     :     0.000585
      f+2     :     0.000397
      f-2     :     0.000318
      f+3     :     0.000312
      f-3     :     0.000092
  2 H s       :     0.710096  s :     0.710096
      pz      :     0.019201  p :     0.042571
      px      :     0.012847
      py      :     0.010523
  3 H s       :     0.661858  s :     0.661858
      pz      :     0.007126  p :     0.031870
      px      :     0.018155
      py      :     0.006589
  4 H s       :     0.640469  s :     0.640469
      pz      :     0.007361  p :     0.036336
      px      :     0.007278
      py      :     0.021697
  5 H s       :     0.811462  s :     0.811462
      pz      :     0.002968  p :     0.022137
      px      :     0.005073
      py      :     0.014095
  6 H s       :     0.780802  s :     0.780802
      pz      :     0.009599  p :     0.026947
      px      :     0.013781
      py      :     0.003567
  7 H s       :     0.788052  s :     0.788052
      pz      :     0.009662  p :     0.023896
      px      :     0.009326
      py      :     0.004908
  8 Pbs       :     3.940189  s :     3.940189
      pz      :     2.354809  p :     7.019098
      px      :     2.292512
      py      :     2.371777
      dz2     :     2.033191  d :    10.160970
      dxz     :     2.031711
      dyz     :     2.036731
      dx2y2   :     2.030490
      dxy     :     2.028847
      f0      :     0.008663  f :     0.069064
      f+1     :     0.011120
      f-1     :     0.007421
      f+2     :     0.013451
      f-2     :     0.005885
      f+3     :     0.011236
      f-3     :     0.011286
  9 Cls       :     5.954480  s :     5.954480
      pz      :     3.904815  p :    11.593256
      px      :     3.777036
      py      :     3.911405
      dz2     :     0.002956  d :     0.021546
      dxz     :     0.004728
      dyz     :     0.001484
      dx2y2   :     0.008100
      dxy     :     0.004278
      f0      :     0.000077  f :     0.000948
      f+1     :     0.000135
      f-1     :     0.000055
      f+2     :     0.000151
      f-2     :     0.000057
      f+3     :     0.000257
      f-3     :     0.000216
 10 Cls       :     5.950015  s :     5.950015
      pz      :     3.854078  p :    11.555822
      px      :     3.919165
      py      :     3.782580
      dz2     :     0.003009  d :     0.021222
      dxz     :     0.001923
      dyz     :     0.006524
      dx2y2   :     0.006846
      dxy     :     0.002921
      f0      :     0.000116  f :     0.001054
      f+1     :     0.000034
      f-1     :     0.000166
      f+2     :     0.000280
      f-2     :     0.000103
      f+3     :     0.000142
      f-3     :     0.000213
 11 Cls       :     5.954952  s :     5.954952
      pz      :     3.827715  p :    11.605070
      px      :     3.846989
      py      :     3.930365
      dz2     :     0.004594  d :     0.015224
      dxz     :     0.006258
      dyz     :     0.001595
      dx2y2   :     0.001517
      dxy     :     0.001260
      f0      :     0.000103  f :     0.000675
      f+1     :     0.000275
      f-1     :     0.000054
      f+2     :     0.000120
      f-2     :     0.000078
      f+3     :     0.000022
      f-3     :     0.000023


                     *******************************
                     * LOEWDIN POPULATION ANALYSIS *
                     *******************************

----------------------
LOEWDIN ATOMIC CHARGES
----------------------
   0 C :   -0.288834
   1 N :    0.144765
   2 H :    0.135271
   3 H :    0.222788
   4 H :    0.213794
   5 H :    0.127114
   6 H :    0.120152
   7 H :    0.124370
   8 Pb:   -0.140509
   9 Cl:   -0.190700
  10 Cl:   -0.177158
  11 Cl:   -0.291052

-------------------------------
LOEWDIN REDUCED ORBITAL CHARGES
-------------------------------
  0 C s       :     2.851066  s :     2.851066
      pz      :     0.934546  p :     3.122265
      px      :     1.155782
      py      :     1.031937
      dz2     :     0.056420  d :     0.280842
      dxz     :     0.070787
      dyz     :     0.071314
      dx2y2   :     0.062021
      dxy     :     0.020301
      f0      :     0.006557  f :     0.034660
      f+1     :     0.003013
      f-1     :     0.008495
      f+2     :     0.005687
      f-2     :     0.005825
      f+3     :     0.002587
      f-3     :     0.002495
  1 N s       :     2.968624  s :     2.968624
      pz      :     1.242137  p :     3.714427
      px      :     1.220085
      py      :     1.252206
      dz2     :     0.041217  d :     0.162256
      dxz     :     0.042097
      dyz     :     0.028190
      dx2y2   :     0.030631
      dxy     :     0.020121
      f0      :     0.001635  f :     0.009927
      f+1     :     0.001970
      f-1     :     0.001538
      f+2     :     0.001000
      f-2     :     0.001954
      f+3     :     0.001200
      f-3     :     0.000630
  2 H s       :     0.727492  s :     0.727492
      pz      :     0.056251  p :     0.137237
      px      :     0.042557
      py      :     0.038429
  3 H s       :     0.685628  s :     0.685628
      pz      :     0.019575  p :     0.091584
      px      :     0.053554
      py      :     0.018454
  4 H s       :     0.681367  s :     0.681367
      pz      :     0.019729  p :     0.104839
      px      :     0.020935
      py      :     0.064175
  5 H s       :     0.809376  s :     0.809376
      pz      :     0.009992  p :     0.063510
      px      :     0.015869
      py      :     0.037650
  6 H s       :     0.802206  s :     0.802206
      pz      :     0.025917  p :     0.077643
      px      :     0.040695
      py      :     0.011030
  7 H s       :     0.805265  s :     0.805265
      pz      :     0.026465  p :     0.070365
      px      :     0.028564
      py      :     0.015336
  8 Pbs       :     3.709539  s :     3.709539
      pz      :     2.501358  p :     7.521523
      px      :     2.484965
      py      :     2.535200
      dz2     :     2.128345  d :    10.691457
      dxz     :     2.144162
      dyz     :     2.134483
      dx2y2   :     2.170025
      dxy     :     2.114442
      f0      :     0.025159  f :     0.217989
      f+1     :     0.040032
      f-1     :     0.018138
      f+2     :     0.046495
      f-2     :     0.016025
      f+3     :     0.035159
      f-3     :     0.036981
  9 Cls       :     5.729128  s :     5.729128
      pz      :     3.836980  p :    11.414302
      px      :     3.737313
      py      :     3.840009
      dz2     :     0.006991  d :     0.044778
      dxz     :     0.009060
      dyz     :     0.002035
      dx2y2   :     0.021893
      dxy     :     0.004799
      f0      :     0.000244  f :     0.002492
      f+1     :     0.000387
      f-1     :     0.000126
      f+2     :     0.000426
      f-2     :     0.000089
      f+3     :     0.000854
      f-3     :     0.000367
 10 Cls       :     5.726358  s :     5.726358
      pz      :     3.800548  p :    11.405593
      px      :     3.853810
      py      :     3.751235
      dz2     :     0.005238  d :     0.042610
      dxz     :     0.002121
      dyz     :     0.012917
      dx2y2   :     0.018855
      dxy     :     0.003478
      f0      :     0.000376  f :     0.002597
      f+1     :     0.000059
      f-1     :     0.000232
      f+2     :     0.000823
      f-2     :     0.000142
      f+3     :     0.000233
      f-3     :     0.000732
 11 Cls       :     5.777344  s :     5.777344
      pz      :     3.788510  p :    11.483792
      px      :     3.809070
      py      :     3.886212
      dz2     :     0.010150  d :     0.028422
      dxz     :     0.013879
      dyz     :     0.001467
      dx2y2   :     0.001890
      dxy     :     0.001037
      f0      :     0.000183  f :     0.001493
      f+1     :     0.000867
      f-1     :     0.000054
      f+2     :     0.000267
      f-2     :     0.000077
      f+3     :     0.000027
      f-3     :     0.000019


                      *****************************
                      * MAYER POPULATION ANALYSIS *
                      *****************************

  NA   - Mulliken gross atomic population
  ZA   - Total nuclear charge
  QA   - Mulliken gross atomic charge
  VA   - Mayer's total valence
  BVA  - Mayer's bonded valence
  FA   - Mayer's free valence

  ATOM       NA         ZA         QA         VA         BVA        FA
  0 C      6.2879     6.0000    -0.2879     3.6945     3.6945    -0.0000
  1 N      7.2720     7.0000    -0.2720     3.4773     3.4773     0.0000
  2 H      0.7527     1.0000     0.2473     0.9445     0.9445    -0.0000
  3 H      0.6937     1.0000     0.3063     0.9085     0.9085     0.0000
  4 H      0.6768     1.0000     0.3232     0.9511     0.9511     0.0000
  5 H      0.8336     1.0000     0.1664     0.9661     0.9661    -0.0000
  6 H      0.8077     1.0000     0.1923     1.0091     1.0091    -0.0000
  7 H      0.8119     1.0000     0.1881     0.9740     0.9740    -0.0000
  8 Pb    21.1893    22.0000     0.8107     1.9538     1.9538    -0.0000
  9 Cl    17.5702    17.0000    -0.5702     0.7206     0.7206     0.0000
 10 Cl    17.5281    17.0000    -0.5281     0.8000     0.8000    -0.0000
 11 Cl    17.5759    17.0000    -0.5759     0.7288     0.7288    -0.0000

  Mayer bond orders larger than 0.1
B(  0-C ,  1-N ) :   0.8537 B(  0-C ,  5-H ) :   0.9614 B(  0-C ,  6-H ) :   0.9215 
B(  0-C ,  7-H ) :   0.9609 B(  1-N ,  2-H ) :   0.9248 B(  1-N ,  3-H ) :   0.8880 
B(  1-N ,  4-H ) :   0.8133 B(  8-Pb,  9-Cl) :   0.5603 B(  8-Pb, 10-Cl) :   0.7064 
B(  8-Pb, 11-Cl) :   0.6744 

-------
TIMINGS
-------

Total SCF time: 0 days 0 hours 4 min 52 sec 

Total time                  ....     292.393 sec
Sum of individual times     ....     274.023 sec  ( 93.7%)

Fock matrix formation       ....     268.831 sec  ( 91.9%)
  Coulomb formation         ....     209.213 sec  ( 77.8% of F)
  Split-RI-J                ....      17.938 sec  (  6.7% of F)
  Chain of spheres X        ....     208.751 sec  ( 77.7% of F)
  COS-X 1 center corr.      ....       0.000 sec  (  0.0% of F)
  XC integration            ....      59.668 sec  ( 22.2% of F)
    Basis function eval.    ....      28.840 sec  ( 48.3% of XC)
    Density eval.           ....      10.090 sec  ( 16.9% of XC)
    XC-Functional eval.     ....       3.006 sec  (  5.0% of XC)
    XC-Potential eval.      ....      16.770 sec  ( 28.1% of XC)
Diagonalization             ....       0.473 sec  (  0.2%)
Density matrix formation    ....       0.044 sec  (  0.0%)
Population analysis         ....       0.060 sec  (  0.0%)
Initial guess               ....       0.101 sec  (  0.0%)
Orbital Transformation      ....       0.000 sec  (  0.0%)
Orbital Orthonormalization  ....       0.098 sec  (  0.0%)
DIIS solution               ....       0.103 sec  (  0.0%)
SOSCF solution              ....       0.088 sec  (  0.0%)
Grid generation             ....       4.324 sec  (  1.5%)

------------------------------------------------------------------------------
                              ORCA MP2 CALCULATION
------------------------------------------------------------------------------


----------------------
RI-MP2 ENERGY+GRADIENT
----------------------
Dimension of the basis                    ...  259
Memory devoted to MP2                     ... 1000 MB   
Data format for buffers                   ... DOUBLE
Compression type for matrix containers    ... UNCOMPRESSED
Overall scaling of the MP2 energy         ...   2.700e-01 Eh
Calculating two index integrals           ... done (    0.010 sec)
Cholesky decomposition of the V-matrix    ... done
Cholesky decomposition of V**-1           ... done (    0.017 sec)

-----------------
RI-TRANSFORMATION (AUX index driven)
-----------------

Dimension of the orbital-basis         ... 259
Dimension of the aux-basis             ... 493
Transformation of internal MOs         ...    0-  45
Transformation of internal/external MOs...    0-  45 to   46- 258
Number Format for Storage              ... Double (8 Byte)
Integral mode                          ... Direct

First Phase: integral generation and transformation of MO indices
  Aux angular momentum 0               ... done (    0.419 sec)
  Aux angular momentum 1               ... done (    0.303 sec)
  Aux angular momentum 2               ... done (    0.343 sec)
  Aux angular momentum 3               ... done (    0.192 sec)
  Aux angular momentum 4               ... done (    0.159 sec)
Closing buffer VIJ ( 0.00 GB; CompressionRatio= 1.95)
Closing buffer VIA ( 0.04 GB; CompressionRatio= 1.00)
  Phase 1 completed in     1.505 sec
Second Phase: sorting and transformation of aux index

IJ-Transformation
Memory available                       ... 990 MB 
Max. # MO pairs treated in a batch     ... 46    
# of internal orbitals                 ... 46
# batches for internal orbitals        ... 1
Closing buffer IJV ( 0.00 GB; CompressionRatio= 1.00)
(ij|v) transformation done in     0.089 sec

IA-Transformation
Memory available                       ... 990 MB 
Max. # MO pairs treated in a batch     ... 46    
# of internal orbitals                 ... 46
# batches for internal orbitals        ... 1
Closing buffer IAV ( 0.04 GB; CompressionRatio= 1.00)
(ia|v) transformation done in     0.232 sec

  Phase 2 completed in     0.396 sec
RI-Integral transformation completed in     1.902 sec
Opening buffers                              ... done

Starting loop over batches of integrals:

Operator 0  - window                       ... (  0- 45)x( 46-258)
Operator 0  - Memory available             ...  1000 MB
Operator 0  - Memory needed per MO         ...   1.6 MB
Operator 0  - Number of orbitals per batch ... 46
Operator 0  - Number of batches            ... 1

OPERATOR  0   PASS   0:  MOs     0 ...   45
  Reading integrals       ... ok
  Internal MO   2
  Internal MO   5
  Internal MO   8
  Internal MO  11
  Internal MO  14
  Internal MO  17
  Internal MO  20
  Internal MO  23
  Internal MO  26
  Internal MO  29
  Internal MO  32
  Internal MO  35
  Internal MO  38
  Internal MO  41
  Internal MO  44
Closing buffer GIPV ( 0.04 GB; CompressionRatio= 1.00)
Time spent in pair loops =    31.776 sec

-----------------------------------------------
 RI-MP2 CORRELATION ENERGY:     -0.578930495 Eh
-----------------------------------------------


---------------------
MP2 DENSITY FORMATION
---------------------

Completing the external part of the density      ... done
Storing the unrelaxed density                    ... done

Calculating the xc-kernel                        ... done
Calculating G(D)                                 ... done
Completing the Lagrangian                        ... done
Solving the Z-vector equations                   ... 

------------------------------------------------------------------------------
                           ORCA CP-SCF CALCULATION
------------------------------------------------------------------------------

Input orbitals are from        ... PbMACl3_mp2_md_21.orca.gbw
Input Perturbation             ... PbMACl3_mp2_md_21.orca.pin.tmp
Wavefunction output            ... PbMACl3_mp2_md_21.orca.pout.tmp
Perturbation mode              ... Real perturbation
Solver                         ... DIIS
   MaxDIIS                     ... 20
   Levelshift                  ...    3.000e-01 Eh
Max. number of iterations      ... 128
Convergence tolerance          ... 1.000e-08
Integral handling              ... Direct
COSX GridX                     ... 1
Number of perturbations        ... 1
Number of operators            ... 1
Orbital ranges used for CP-SCF:
 Operator 0:  Orbitals   0... 45  to  46...258
DFT calculation                         ... on
Exchange functional (SCF)               ... B88
Exchange functional (CP-SCF)            ... B88
   X-Alpha parameter    XAlpha (SCF)    ...  0.666667
   X-Alpha parameter    XAlpha (CP-SCF) ...  0.666667
   Becke's b parameter  XBeta (SCF)     ...  0.004200
   Becke's b parameter  XBeta (CP-SCF)  ...  0.004200
Correlation functional (SCF)            ... LYP
Correlation functional (CP-SCF)         ... LYP
 LDA part of GGA corr.  LDAOpt (SCF)    ... VWN-3
 LDA part of GGA corr.  LDAOpt (CP-SCF) ... VWN-3
Hybrid DFT                              ... on
   Exchange mixing (SCF)                ...  0.530
   Exchange mixing (CP-SCF)             ...  0.530
   GGA exch. scaling(SCF)               ...  0.470
   GGA exch. scaling (CP-SCF)           ...  0.470
   GGA corr. scaling (SCF)              ...  0.730
   GGA corr. scaling (CP-SCF)           ...  0.730
The RIJCOSX approximation is active
Variables per vector in CP-SCF ... 9798
Number of vectors sought       ... 1
Calculating the xc-kernel      ... done

Solving the CP-SCF equations by a DIIS algorithm

-----------------
CP-SCF ITERATIONS
-----------------
  Iteration   0: MaxR=  0.088017311
  Iteration   1: MaxR=  0.041646077
  Iteration   2: MaxR=  0.012015900
  Iteration   3: MaxR=  0.005195352
  Iteration   4: MaxR=  0.002665242
  Iteration   5: MaxR=  0.001127481
  Iteration   6: MaxR=  0.000467158
  Iteration   7: MaxR=  0.000137374
  Iteration   8: MaxR=  0.000052434
  Iteration   9: MaxR=  0.000017890
  Iteration  10: MaxR=  0.000007955
  Iteration  11: MaxR=  0.000003175
  Iteration  12: MaxR=  0.000001282
  Iteration  13: MaxR=  0.000000449
  Iteration  14: MaxR=  0.000000174
  Iteration  15: MaxR=  0.000000065
  Iteration  16: MaxR=  0.000000019
  Iteration  17: MaxR=  0.000000007
                              *** THE CP-SCF HAS CONVERGED *** 
done
Finalizing the relaxed density                   ... done
Transforming P to the AO basis                   ... done
Storing the relaxed density                      ... done

------------------------------------
ENERGY WEIGHTED DENSITY FINALIZATION
------------------------------------

Gathering the parts of the W-matrix              ... done
Forming the Z-density                            ... done
Transforming Z to the AO basis                   ... done
Calculating G(Z)                                 ... done
Finalizing the W-matrix                          ... done
Transforming W to the AO basis and storing       ... done
Entering the RIJONX and RIJCOSX sections
Starting the three-index derivative integrals:
Operator 0  - Memory available             ...  1000 MB
Operator 0  - Memory needed per MO         ...   1.0 MB
Operator 0  - Number of orbitals per batch ... 46
Operator 0  - Number of batches            ... 1

OPERATOR  0   PASS   0:  MOs     0 ...   45

----------------------------------
MP2 DERIVATIVE INTEGRAL GENERATION
----------------------------------


Input Correlated Electron Density   ... PbMACl3_mp2_md_21.orca.pmp2re
Input Energy Weighted Density       ... PbMACl3_mp2_md_21.orca.wmp2.tmp
Input SCF Electron Density          ... PbMACl3_mp2_md_21.orca.scfp.tmp

One-Electron Terms    ...
  ECP gradient                                           ... One-Electron Terms done

-----------------------------------------------------------
MP2 COSX Grid Generation
-----------------------------------------------------------

General Integration Accuracy     IntAcc      ...  4.340
Radial Grid Type                 RadialGrid  ... Gauss-Chebyshev
Angular Grid (max. acc.)         AngularGrid ... Lebedev-302
Angular grid pruning method      GridPruning ... 3 (G Style)
Weight generation scheme         WeightScheme... Becke
Basis function cutoff            BFCut       ...    1.0000e-11
Integration weight cutoff        WCut        ...    1.0000e-14
Grids for H and He will be reduced by one unit

# of grid points (after initial pruning)     ...  57718 (   0.0 sec)
# of grid points (after weights+screening)   ...  54310 (   0.1 sec)
nearest neighbour list constructed           ...    0.0 sec
Grid point re-assignment to atoms done       ...    0.0 sec
Grid point division into batches done        ...    0.2 sec
Reduced shell lists constructed in    1.3 sec

Total number of grid points                  ...    54310
Total number of batches                      ...      856
Average number of points per batch           ...       63
Average number of grid points per atom       ...     4526
Average number of shells per batch           ...    56.70 (56.14%)
Average number of basis functions per batch  ...   150.38 (58.06%)
Average number of large shells per batch     ...    42.97 (75.77%)
Average number of large basis fcns per batch ...   111.23 (73.97%)
Maximum spatial batch extension              ...  34.50, 35.78, 39.07 au
Average spatial batch extension              ...   3.06,  3.12,  3.11 au

Overlap Fitting                  UseSFitting ... on
Two electron COSX terms .... 
Integration Timings:
Total Time                  =    72.2 sec
Basis fcn evaluation        =     0.6 sec
Density evaluation          =     0.6 sec
Integral evaluation         =    69.7 sec
K(P) evaluation             =     0.5 sec
                          .... COSX two electron terms done
COSX two-electron contribution to the gradient
     0:    -0.042731    -0.027885     0.112362
     1:     0.015077     0.064623    -0.142878
     2:    -0.109563     0.065550     0.188870
     3:     0.191448    -0.043501     0.076700
     4:    -0.077612    -0.174108    -0.016087
     5:     0.043044     0.163432     0.005771
     6:    -0.126511    -0.015772    -0.094698
     7:     0.110468    -0.032903    -0.125399
     8:     0.003836    -0.033556    -0.022720
     9:     0.050949    -0.015673     0.002973
    10:    -0.014686     0.062212    -0.039237
    11:    -0.043495    -0.012305     0.054449
Exchange-correlation gradient    ... done
Dispersion correction            ... 
Entering the calculation of the dispersion correction...

Checking the input atom types...

Done
done

                *********************************************
                * UNRELAXED MP2 DENSITY POPULATION ANALYSIS *
                *********************************************

------------------------------------------------------------------------------
                           ORCA POPULATION ANALYSIS
------------------------------------------------------------------------------
Input electron density              ... PbMACl3_mp2_md_21.orca.pmp2ur
BaseName (.gbw .S,...)              ... PbMACl3_mp2_md_21.orca

                    ********************************
                    * MULLIKEN POPULATION ANALYSIS *
                    ********************************

-----------------------
MULLIKEN ATOMIC CHARGES
-----------------------
   0 C :   -0.292352
   1 N :   -0.271161
   2 H :    0.247805
   3 H :    0.306188
   4 H :    0.321569
   5 H :    0.167403
   6 H :    0.192141
   7 H :    0.188922
   8 Pb:    0.794643
   9 Cl:   -0.564054
  10 Cl:   -0.521703
  11 Cl:   -0.569401
Sum of atomic charges:   -0.0000000

--------------------------------
MULLIKEN REDUCED ORBITAL CHARGES
--------------------------------
  0 C s       :     3.255843  s :     3.255843
      pz      :     0.831568  p :     2.957844
      px      :     1.163160
      py      :     0.963115
      dz2     :     0.012678  d :     0.071719
      dxz     :     0.017988
      dyz     :     0.016485
      dx2y2   :     0.016537
      dxy     :     0.008031
      f0      :     0.000985  f :     0.006946
      f+1     :     0.000534
      f-1     :     0.001719
      f+2     :     0.001844
      f-2     :     0.000849
      f+3     :     0.000489
      f-3     :     0.000527
  1 N s       :     3.408665  s :     3.408665
      pz      :     1.247722  p :     3.802542
      px      :     1.259710
      py      :     1.295110
      dz2     :     0.013667  d :     0.056727
      dxz     :     0.014594
      dyz     :     0.008088
      dx2y2   :     0.011775
      dxy     :     0.008602
      f0      :     0.000349  f :     0.003227
      f+1     :     0.000448
      f-1     :     0.000732
      f+2     :     0.000544
      f-2     :     0.000467
      f+3     :     0.000450
      f-3     :     0.000237
  2 H s       :     0.708989  s :     0.708989
      pz      :     0.019402  p :     0.043206
      px      :     0.013052
      py      :     0.010753
  3 H s       :     0.661371  s :     0.661371
      pz      :     0.007363  p :     0.032441
      px      :     0.018245
      py      :     0.006833
  4 H s       :     0.641548  s :     0.641548
      pz      :     0.007649  p :     0.036883
      px      :     0.007507
      py      :     0.021726
  5 H s       :     0.809474  s :     0.809474
      pz      :     0.003348  p :     0.023123
      px      :     0.005418
      py      :     0.014357
  6 H s       :     0.779978  s :     0.779978
      pz      :     0.009904  p :     0.027881
      px      :     0.014015
      py      :     0.003962
  7 H s       :     0.786174  s :     0.786174
      pz      :     0.009968  p :     0.024905
      px      :     0.009656
      py      :     0.005281
  8 Pbs       :     3.920450  s :     3.920450
      pz      :     2.364308  p :     7.046453
      px      :     2.301961
      py      :     2.380184
      dz2     :     2.027693  d :    10.133214
      dxz     :     2.026117
      dyz     :     2.031193
      dx2y2   :     2.024895
      dxy     :     2.023316
      f0      :     0.013851  f :     0.105240
      f+1     :     0.016214
      f-1     :     0.012677
      f+2     :     0.018551
      f-2     :     0.011124
      f+3     :     0.016394
      f-3     :     0.016428
  9 Cls       :     5.949949  s :     5.949949
      pz      :     3.890023  p :    11.549201
      px      :     3.762608
      py      :     3.896569
      dz2     :     0.010879  d :     0.061179
      dxz     :     0.012719
      dyz     :     0.009392
      dx2y2   :     0.015935
      dxy     :     0.012253
      f0      :     0.000466  f :     0.003725
      f+1     :     0.000534
      f-1     :     0.000440
      f+2     :     0.000549
      f-2     :     0.000453
      f+3     :     0.000660
      f-3     :     0.000623
 10 Cls       :     5.945418  s :     5.945418
      pz      :     3.839507  p :    11.512296
      px      :     3.904612
      py      :     3.768178
      dz2     :     0.010798  d :     0.060194
      dxz     :     0.009691
      dyz     :     0.014298
      dx2y2   :     0.014623
      dxy     :     0.010785
      f0      :     0.000500  f :     0.003795
      f+1     :     0.000414
      f-1     :     0.000569
      f+2     :     0.000670
      f-2     :     0.000495
      f+3     :     0.000540
      f-3     :     0.000606
 11 Cls       :     5.950324  s :     5.950324
      pz      :     3.813149  p :    11.561855
      px      :     3.832580
      py      :     3.916126
      dz2     :     0.012392  d :     0.053874
      dxz     :     0.013979
      dyz     :     0.009367
      dx2y2   :     0.009189
      dxy     :     0.008947
      f0      :     0.000496  f :     0.003348
      f+1     :     0.000663
      f-1     :     0.000440
      f+2     :     0.000501
      f-2     :     0.000462
      f+3     :     0.000393
      f-3     :     0.000394


                     *******************************
                     * LOEWDIN POPULATION ANALYSIS *
                     *******************************

----------------------
LOEWDIN ATOMIC CHARGES
----------------------
   0 C :   -0.292229
   1 N :    0.144241
   2 H :    0.135667
   3 H :    0.222699
   4 H :    0.212898
   5 H :    0.127853
   6 H :    0.120524
   7 H :    0.124995
   8 Pb:   -0.151579
   9 Cl:   -0.186575
  10 Cl:   -0.172662
  11 Cl:   -0.285832

-------------------------------
LOEWDIN REDUCED ORBITAL CHARGES
-------------------------------
  0 C s       :     2.850554  s :     2.850554
      pz      :     0.932855  p :     3.114779
      px      :     1.152346
      py      :     1.029578
      dz2     :     0.058111  d :     0.290452
      dxz     :     0.072782
      dyz     :     0.073055
      dx2y2   :     0.064087
      dxy     :     0.022416
      f0      :     0.006763  f :     0.036444
      f+1     :     0.003255
      f-1     :     0.008807
      f+2     :     0.006034
      f-2     :     0.006036
      f+3     :     0.002821
      f-3     :     0.002727
  1 N s       :     2.968028  s :     2.968028
      pz      :     1.238206  p :     3.703549
      px      :     1.216953
      py      :     1.248391
      dz2     :     0.043251  d :     0.172956
      dxz     :     0.044108
      dyz     :     0.030568
      dx2y2   :     0.032816
      dxy     :     0.022213
      f0      :     0.001811  f :     0.011226
      f+1     :     0.002154
      f-1     :     0.001758
      f+2     :     0.001199
      f-2     :     0.002126
      f+3     :     0.001381
      f-3     :     0.000797
  2 H s       :     0.725805  s :     0.725805
      pz      :     0.056888  p :     0.138528
      px      :     0.042914
      py      :     0.038727
  3 H s       :     0.684421  s :     0.684421
      pz      :     0.019957  p :     0.092880
      px      :     0.054146
      py      :     0.018778
  4 H s       :     0.680968  s :     0.680968
      pz      :     0.020117  p :     0.106133
      px      :     0.021316
      py      :     0.064700
  5 H s       :     0.806827  s :     0.806827
      pz      :     0.010457  p :     0.065319
      px      :     0.016297
      py      :     0.038565
  6 H s       :     0.799974  s :     0.799974
      pz      :     0.026503  p :     0.079502
      px      :     0.041482
      py      :     0.011518
  7 H s       :     0.802780  s :     0.802780
      pz      :     0.027148  p :     0.072225
      px      :     0.029242
      py      :     0.015835
  8 Pbs       :     3.692462  s :     3.692462
      pz      :     2.509577  p :     7.544369
      px      :     2.492809
      py      :     2.541984
      dz2     :     2.122436  d :    10.660940
      dxz     :     2.137988
      dyz     :     2.128251
      dx2y2   :     2.163884
      dxy     :     2.108381
      f0      :     0.030354  f :     0.253808
      f+1     :     0.045023
      f-1     :     0.023394
      f+2     :     0.051453
      f-2     :     0.021280
      f+3     :     0.040270
      f-3     :     0.042035
  9 Cls       :     5.724838  s :     5.724838
      pz      :     3.822642  p :    11.371898
      px      :     3.723594
      py      :     3.825662
      dz2     :     0.014972  d :     0.084491
      dxz     :     0.016994
      dyz     :     0.009967
      dx2y2   :     0.029795
      dxy     :     0.012763
      f0      :     0.000640  f :     0.005347
      f+1     :     0.000800
      f-1     :     0.000517
      f+2     :     0.000836
      f-2     :     0.000489
      f+3     :     0.001275
      f-3     :     0.000790
 10 Cls       :     5.722022  s :     5.722022
      pz      :     3.786462  p :    11.363532
      px      :     3.839656
      py      :     3.737414
      dz2     :     0.013023  d :     0.081691
      dxz     :     0.009911
      dyz     :     0.020804
      dx2y2   :     0.026646
      dxy     :     0.011306
      f0      :     0.000771  f :     0.005417
      f+1     :     0.000442
      f-1     :     0.000643
      f+2     :     0.001237
      f-2     :     0.000541
      f+3     :     0.000642
      f-3     :     0.001141
 11 Cls       :     5.772867  s :     5.772867
      pz      :     3.774483  p :    11.441665
      px      :     3.795010
      py      :     3.872173
      dz2     :     0.017912  d :     0.067089
      dxz     :     0.021683
      dyz     :     0.009207
      dx2y2   :     0.009577
      dxy     :     0.008711
      f0      :     0.000582  f :     0.004211
      f+1     :     0.001275
      f-1     :     0.000443
      f+2     :     0.000656
      f-2     :     0.000464
      f+3     :     0.000399
      f-3     :     0.000391


                      *****************************
                      * MAYER POPULATION ANALYSIS *
                      *****************************

  NA   - Mulliken gross atomic population
  ZA   - Total nuclear charge
  QA   - Mulliken gross atomic charge
  VA   - Mayer's total valence
  BVA  - Mayer's bonded valence
  FA   - Mayer's free valence

  ATOM       NA         ZA         QA         VA         BVA        FA
  0 C      6.2924     6.0000    -0.2924     3.7443     3.6271     0.1172
  1 N      7.2712     7.0000    -0.2712     3.5475     3.4121     0.1354
  2 H      0.7522     1.0000     0.2478     0.9464     0.9311     0.0154
  3 H      0.6938     1.0000     0.3062     0.9103     0.8919     0.0184
  4 H      0.6784     1.0000     0.3216     0.9543     0.9333     0.0211
  5 H      0.8326     1.0000     0.1674     0.9687     0.9499     0.0187
  6 H      0.8079     1.0000     0.1921     1.0121     0.9915     0.0206
  7 H      0.8111     1.0000     0.1889     0.9763     0.9581     0.0181
  8 Pb    21.2054    22.0000     0.7946     2.2655     1.8949     0.3706
  9 Cl    17.5641    17.0000    -0.5641     0.9606     0.6988     0.2619
 10 Cl    17.5217    17.0000    -0.5217     1.0365     0.7753     0.2612
 11 Cl    17.5694    17.0000    -0.5694     0.9685     0.7057     0.2628

  Mayer bond orders larger than 0.1
B(  0-C ,  1-N ) :   0.8334 B(  0-C ,  5-H ) :   0.9461 B(  0-C ,  6-H ) :   0.9059 
B(  0-C ,  7-H ) :   0.9459 B(  1-N ,  2-H ) :   0.9122 B(  1-N ,  3-H ) :   0.8723 
B(  1-N ,  4-H ) :   0.7985 B(  8-Pb,  9-Cl) :   0.5435 B(  8-Pb, 10-Cl) :   0.6850 
B(  8-Pb, 11-Cl) :   0.6536 


                *******************************************
                * RELAXED MP2 DENSITY POPULATION ANALYSIS *
                *******************************************

------------------------------------------------------------------------------
                           ORCA POPULATION ANALYSIS
------------------------------------------------------------------------------
Input electron density              ... PbMACl3_mp2_md_21.orca.pmp2re
BaseName (.gbw .S,...)              ... PbMACl3_mp2_md_21.orca

                    ********************************
                    * MULLIKEN POPULATION ANALYSIS *
                    ********************************

-----------------------
MULLIKEN ATOMIC CHARGES
-----------------------
   0 C :   -0.308465
   1 N :   -0.269995
   2 H :    0.249038
   3 H :    0.304994
   4 H :    0.313856
   5 H :    0.169769
   6 H :    0.192940
   7 H :    0.191664
   8 Pb:    0.741572
   9 Cl:   -0.540921
  10 Cl:   -0.498498
  11 Cl:   -0.545955
Sum of atomic charges:   -0.0000000

--------------------------------
MULLIKEN REDUCED ORBITAL CHARGES
--------------------------------
  0 C s       :     3.259349  s :     3.259349
      pz      :     0.838377  p :     2.974855
      px      :     1.167802
      py      :     0.968676
      dz2     :     0.012147  d :     0.067464
      dxz     :     0.016912
      dyz     :     0.015455
      dx2y2   :     0.015056
      dxy     :     0.007893
      f0      :     0.000968  f :     0.006797
      f+1     :     0.000532
      f-1     :     0.001667
      f+2     :     0.001799
      f-2     :     0.000837
      f+3     :     0.000475
      f-3     :     0.000519
  1 N s       :     3.409584  s :     3.409584
      pz      :     1.247003  p :     3.801972
      px      :     1.260088
      py      :     1.294881
      dz2     :     0.013483  d :     0.055269
      dxz     :     0.014393
      dyz     :     0.007601
      dx2y2   :     0.011353
      dxy     :     0.008439
      f0      :     0.000350  f :     0.003169
      f+1     :     0.000442
      f-1     :     0.000710
      f+2     :     0.000531
      f-2     :     0.000465
      f+3     :     0.000439
      f-3     :     0.000234
  2 H s       :     0.708240  s :     0.708240
      pz      :     0.018989  p :     0.042721
      px      :     0.012948
      py      :     0.010785
  3 H s       :     0.663017  s :     0.663017
      pz      :     0.007343  p :     0.031989
      px      :     0.017776
      py      :     0.006870
  4 H s       :     0.649661  s :     0.649661
      pz      :     0.007711  p :     0.036483
      px      :     0.007524
      py      :     0.021248
  5 H s       :     0.807483  s :     0.807483
      pz      :     0.003435  p :     0.022748
      px      :     0.005474
      py      :     0.013840
  6 H s       :     0.779482  s :     0.779482
      pz      :     0.009750  p :     0.027578
      px      :     0.013772
      py      :     0.004055
  7 H s       :     0.783827  s :     0.783827
      pz      :     0.009692  p :     0.024509
      px      :     0.009470
      py      :     0.005346
  8 Pbs       :     3.933841  s :     3.933841
      pz      :     2.379197  p :     7.088936
      px      :     2.320805
      py      :     2.388934
      dz2     :     2.027186  d :    10.132330
      dxz     :     2.025536
      dyz     :     2.031581
      dx2y2   :     2.023194
      dxy     :     2.024832
      f0      :     0.013590  f :     0.103321
      f+1     :     0.015775
      f-1     :     0.012552
      f+2     :     0.018139
      f-2     :     0.011042
      f+3     :     0.016098
      f-3     :     0.016125
  9 Cls       :     5.950448  s :     5.950448
      pz      :     3.880267  p :    11.525358
      px      :     3.756328
      py      :     3.888763
      dz2     :     0.010893  d :     0.061376
      dxz     :     0.012859
      dyz     :     0.009448
      dx2y2   :     0.016052
      dxy     :     0.012124
      f0      :     0.000468  f :     0.003738
      f+1     :     0.000536
      f-1     :     0.000443
      f+2     :     0.000552
      f-2     :     0.000455
      f+3     :     0.000660
      f-3     :     0.000625
 10 Cls       :     5.946036  s :     5.946036
      pz      :     3.830351  p :    11.488465
      px      :     3.897514
      py      :     3.760600
      dz2     :     0.010860  d :     0.060193
      dxz     :     0.009725
      dyz     :     0.014099
      dx2y2   :     0.014724
      dxy     :     0.010784
      f0      :     0.000499  f :     0.003804
      f+1     :     0.000416
      f-1     :     0.000572
      f+2     :     0.000670
      f-2     :     0.000497
      f+3     :     0.000545
      f-3     :     0.000606
 11 Cls       :     5.951179  s :     5.951179
      pz      :     3.804654  p :    11.537735
      px      :     3.823763
      py      :     3.909318
      dz2     :     0.012463  d :     0.053682
      dxz     :     0.013829
      dyz     :     0.009350
      dx2y2   :     0.009139
      dxy     :     0.008900
      f0      :     0.000500  f :     0.003358
      f+1     :     0.000662
      f-1     :     0.000442
      f+2     :     0.000502
      f-2     :     0.000464
      f+3     :     0.000394
      f-3     :     0.000395


                     *******************************
                     * LOEWDIN POPULATION ANALYSIS *
                     *******************************

----------------------
LOEWDIN ATOMIC CHARGES
----------------------
   0 C :   -0.301925
   1 N :    0.140792
   2 H :    0.136267
   3 H :    0.222863
   4 H :    0.211002
   5 H :    0.129618
   6 H :    0.121815
   7 H :    0.126394
   8 Pb:   -0.180666
   9 Cl:   -0.174765
  10 Cl:   -0.160304
  11 Cl:   -0.271091

-------------------------------
LOEWDIN REDUCED ORBITAL CHARGES
-------------------------------
  0 C s       :     2.852540  s :     2.852540
      pz      :     0.937728  p :     3.127466
      px      :     1.156443
      py      :     1.033295
      dz2     :     0.057506  d :     0.285724
      dxz     :     0.071653
      dyz     :     0.071661
      dx2y2   :     0.062601
      dxy     :     0.022304
      f0      :     0.006736  f :     0.036195
      f+1     :     0.003249
      f-1     :     0.008709
      f+2     :     0.005971
      f-2     :     0.006007
      f+3     :     0.002808
      f-3     :     0.002715
  1 N s       :     2.969089  s :     2.969089
      pz      :     1.237595  p :     3.706276
      px      :     1.218969
      py      :     1.249711
      dz2     :     0.043317  d :     0.172589
      dxz     :     0.044068
      dyz     :     0.030397
      dx2y2   :     0.032598
      dxy     :     0.022209
      f0      :     0.001822  f :     0.011254
      f+1     :     0.002149
      f-1     :     0.001761
      f+2     :     0.001201
      f-2     :     0.002133
      f+3     :     0.001389
      f-3     :     0.000799
  2 H s       :     0.725492  s :     0.725492
      pz      :     0.056586  p :     0.138241
      px      :     0.042826
      py      :     0.038828
  3 H s       :     0.684610  s :     0.684610
      pz      :     0.019985  p :     0.092528
      px      :     0.053703
      py      :     0.018840
  4 H s       :     0.682903  s :     0.682903
      pz      :     0.020216  p :     0.106095
      px      :     0.021357
      py      :     0.064522
  5 H s       :     0.804955  s :     0.804955
      pz      :     0.010682  p :     0.065427
      px      :     0.016470
      py      :     0.038275
  6 H s       :     0.798415  s :     0.798415
      pz      :     0.026501  p :     0.079770
      px      :     0.041567
      py      :     0.011703
  7 H s       :     0.801241  s :     0.801241
      pz      :     0.027066  p :     0.072365
      px      :     0.029257
      py      :     0.016042
  8 Pbs       :     3.704969  s :     3.704969
      pz      :     2.518760  p :     7.569469
      px      :     2.505384
      py      :     2.545325
      dz2     :     2.121298  d :    10.654912
      dxz     :     2.136396
      dyz     :     2.127373
      dx2y2   :     2.160982
      dxy     :     2.108863
      f0      :     0.029980  f :     0.251317
      f+1     :     0.044535
      f-1     :     0.023098
      f+2     :     0.051082
      f-2     :     0.021027
      f+3     :     0.039905
      f-3     :     0.041690
  9 Cls       :     5.728028  s :     5.728028
      pz      :     3.815400  p :    11.355526
      px      :     3.720036
      py      :     3.820090
      dz2     :     0.015199  d :     0.085771
      dxz     :     0.017263
      dyz     :     0.010043
      dx2y2   :     0.030409
      dxy     :     0.012857
      f0      :     0.000648  f :     0.005440
      f+1     :     0.000819
      f-1     :     0.000522
      f+2     :     0.000846
      f-2     :     0.000495
      f+3     :     0.001299
      f-3     :     0.000812
 10 Cls       :     5.725194  s :     5.725194
      pz      :     3.779720  p :    11.346718
      px      :     3.834285
      py      :     3.732713
      dz2     :     0.013150  d :     0.082877
      dxz     :     0.009973
      dyz     :     0.021160
      dx2y2   :     0.027127
      dxy     :     0.011466
      f0      :     0.000785  f :     0.005515
      f+1     :     0.000444
      f-1     :     0.000651
      f+2     :     0.001270
      f-2     :     0.000549
      f+3     :     0.000657
      f-3     :     0.001159
 11 Cls       :     5.775821  s :     5.775821
      pz      :     3.768449  p :    11.423347
      px      :     3.788333
      py      :     3.866566
      dz2     :     0.018133  d :     0.067657
      dxz     :     0.021973
      dyz     :     0.009249
      dx2y2   :     0.009604
      dxy     :     0.008698
      f0      :     0.000587  f :     0.004266
      f+1     :     0.001302
      f-1     :     0.000448
      f+2     :     0.000668
      f-2     :     0.000469
      f+3     :     0.000400
      f-3     :     0.000392


                      *****************************
                      * MAYER POPULATION ANALYSIS *
                      *****************************

  NA   - Mulliken gross atomic population
  ZA   - Total nuclear charge
  QA   - Mulliken gross atomic charge
  VA   - Mayer's total valence
  BVA  - Mayer's bonded valence
  FA   - Mayer's free valence

  ATOM       NA         ZA         QA         VA         BVA        FA
  0 C      6.3085     6.0000    -0.3085     3.7413     3.6244     0.1169
  1 N      7.2700     7.0000    -0.2700     3.5500     3.4149     0.1351
  2 H      0.7510     1.0000     0.2490     0.9460     0.9307     0.0153
  3 H      0.6950     1.0000     0.3050     0.9111     0.8928     0.0183
  4 H      0.6861     1.0000     0.3139     0.9642     0.9433     0.0208
  5 H      0.8302     1.0000     0.1698     0.9675     0.9488     0.0187
  6 H      0.8071     1.0000     0.1929     1.0176     0.9972     0.0205
  7 H      0.8083     1.0000     0.1917     0.9774     0.9594     0.0181
  8 Pb    21.2584    22.0000     0.7416     2.3473     1.9825     0.3649
  9 Cl    17.5409    17.0000    -0.5409     1.0044     0.7439     0.2605
 10 Cl    17.4985    17.0000    -0.4985     1.0795     0.8197     0.2598
 11 Cl    17.5460    17.0000    -0.5460     1.0102     0.7490     0.2612

  Mayer bond orders larger than 0.1
B(  0-C ,  1-N ) :   0.8418 B(  0-C ,  5-H ) :   0.9424 B(  0-C ,  6-H ) :   0.9009 
B(  0-C ,  7-H ) :   0.9423 B(  1-N ,  2-H ) :   0.9100 B(  1-N ,  3-H ) :   0.8712 
B(  1-N ,  4-H ) :   0.7936 B(  4-H ,  9-Cl) :   0.1061 B(  6-H , 10-Cl) :   0.1042 
B(  8-Pb,  9-Cl) :   0.5649 B(  8-Pb, 10-Cl) :   0.7145 B(  8-Pb, 11-Cl) :   0.6868 



-------
TIMINGS
-------

Total time                :  407.711 sec
Integral trafo            :    1.910 sec (  0.5%)
I/O of integrals          :    0.104 sec (  0.0%)
K(i,j) Operators          :    3.636 sec (  0.9%)
T(i,j) pair energies      :    0.911 sec (  0.2%)
V-calculation             :    0.010 sec (  0.0%)
V**(-1/2)                 :    0.017 sec (  0.0%)
Gamma(ia|P)               :    3.192 sec (  0.8%)
Gamma-Trafo               :    0.459 sec (  0.1%)
D(virtual)                :    1.468 sec (  0.4%)
D(internal)               :    3.029 sec (  0.7%)
W(virtual)                :    2.921 sec (  0.7%)
W(internal)               :   11.263 sec (  2.8%)
L(virtual)                :    4.452 sec (  1.1%)
L(internal)               :    0.165 sec (  0.0%)
G(D)                      :   11.548 sec (  2.8%)
G(Z)                      :   11.697 sec (  2.9%)
Z-Vector Solution         :  261.884 sec ( 64.2%)
Z-Vector Solution         :  261.884 sec ( 64.2%)
3-Index Derivative 
+ Separable RIJ part      :    3.557 sec (  0.9%)
2-Index Derivative 
+ Separable RIJ part      :    0.019 sec (  0.0%)
Separable Gradient (COSX) :   84.175 sec ( 20.6%)


---------------------------------------
MP2 TOTAL ENERGY:    -1669.553095797 Eh
---------------------------------------

The final MP2 gradient
  0:  -0.00948733  -0.01163301   0.01489718
  1:  -0.06853425   0.07135437   0.08500676
  2:   0.07254352  -0.05435808  -0.10820439
  3:   0.02014116  -0.00930617   0.01936494
  4:  -0.01461889  -0.02509146   0.01176111
  5:   0.00814343   0.00781442  -0.01622401
  6:   0.00243569  -0.00053067  -0.01664913
  7:  -0.01191909   0.01292604   0.00472619
  8:   0.04092332   0.04250370   0.02144139
  9:  -0.03287820   0.00432889  -0.01283627
 10:   0.00012356  -0.02971532   0.00564933
 11:  -0.00656261  -0.00817956  -0.00876429

-----------------------------------
NORM OF THE MP2 GRADIENT:  0.215752
-----------------------------------

Entering the calculation of the dispersion correction...

Checking the input atom types...

Done


-------------------------------------------------------------------------------
                          DFT DISPERSION CORRECTION                            
                                                                               
                                DFTD3 V2.1  Rev 6                               
                          USING Becke-Johnson damping                          
-------------------------------------------------------------------------------
The B2PLYP functional is recognized
Active option DFTDOPT                   ...         4   

molecular C6(AA) [au] = 4869.729127 


            DFT-D V3
 parameters
 s6 scaling factor         :     0.6400 
 a1 scaling factor         :     0.3065 
 s8 scaling factor         :     0.9147 
 a2 scaling factor         :     5.0570 
 ad hoc parameters k1-k3   :    16.0000     1.3333    -4.0000 

 Edisp/kcal,au: -8.639601601407  -0.013768080064 
 E6   /kcal   :  -3.936140169 
 E8   /kcal   :  -4.703461432 
 % E8         :  54.440721332 

-------------------------   ----------------
Dispersion correction           -0.013768080
-------------------------   ----------------


-------------------------   --------------------
FINAL SINGLE POINT ENERGY     -1669.566863877383
-------------------------   --------------------


                            ***************************************
                            *     ORCA property calculations      *
                            ***************************************


  WARNING: The energy has been calculated at the MP2 level but the densities
           used in the property calculations are still SCF densities
           MP2 response densities have not been calculated 
           use %mp2 Density relaxed end
           or  %mp2 Density unrelaxed end

                                    ---------------------
                                    Active property flags
                                    ---------------------
   (+) Dipole Moment


------------------------------------------------------------------------------
                       ORCA ELECTRIC PROPERTIES CALCULATION
------------------------------------------------------------------------------

Dipole Moment Calculation                       ... on
Quadrupole Moment Calculation                   ... off
Polarizability Calculation                      ... off
GBWName                                         ... PbMACl3_mp2_md_21.orca.gbw
Electron density file                           ... PbMACl3_mp2_md_21.orca.scfp.tmp

-------------
DIPOLE MOMENT
-------------
                                X             Y             Z
Electronic contribution:    -49.83978     -61.48538     -62.38635
Nuclear contribution   :     52.77808      62.99673      64.45748
                        -----------------------------------------
Total Dipole Moment    :      2.93830       1.51134       2.07113
                        -----------------------------------------
Magnitude (a.u.)       :      3.89965
Magnitude (Debye)      :      9.91213


                         *** MP2 UNRELAXED DENSITY ***

------------------------------------------------------------------------------
                       ORCA ELECTRIC PROPERTIES CALCULATION
------------------------------------------------------------------------------

Dipole Moment Calculation                       ... on
Quadrupole Moment Calculation                   ... off
Polarizability Calculation                      ... off
GBWName                                         ... PbMACl3_mp2_md_21.orca.gbw
Electron density file                           ... PbMACl3_mp2_md_21.orca.pmp2ur

-------------
DIPOLE MOMENT
-------------
                                X             Y             Z
Electronic contribution:    -49.84754     -61.48343     -62.38347
Nuclear contribution   :     52.77808      62.99673      64.45748
                        -----------------------------------------
Total Dipole Moment    :      2.93054       1.51330       2.07401
                        -----------------------------------------
Magnitude (a.u.)       :      3.89611
Magnitude (Debye)      :      9.90311


                           *** MP2 RELAXED DENSITY ***

------------------------------------------------------------------------------
                       ORCA ELECTRIC PROPERTIES CALCULATION
------------------------------------------------------------------------------

Dipole Moment Calculation                       ... on
Quadrupole Moment Calculation                   ... off
Polarizability Calculation                      ... off
GBWName                                         ... PbMACl3_mp2_md_21.orca.gbw
Electron density file                           ... PbMACl3_mp2_md_21.orca.pmp2re

-------------
DIPOLE MOMENT
-------------
                                X             Y             Z
Electronic contribution:    -49.89939     -61.52203     -62.41344
Nuclear contribution   :     52.77808      62.99673      64.45748
                        -----------------------------------------
Total Dipole Moment    :      2.87868       1.47470       2.04403
                        -----------------------------------------
Magnitude (a.u.)       :      3.82618
Magnitude (Debye)      :      9.72537


Timings for individual modules:

Sum of individual times         ...      700.990 sec (=  11.683 min)
GTO integral calculation        ...        0.554 sec (=   0.009 min)   0.1 %
SCF iterations                  ...      292.550 sec (=   4.876 min)  41.7 %
MP2 module                      ...      407.885 sec (=   6.798 min)  58.2 %
                             ****ORCA TERMINATED NORMALLY****
TOTAL RUN TIME: 0 days 0 hours 11 minutes 41 seconds 829 msec
