
                                 *****************
                                 * O   R   C   A *
                                 *****************

           --- An Ab Initio, DFT and Semiempirical electronic structure package ---

                  #######################################################
                  #                        -***-                        #
                  #  Department of molecular theory and spectroscopy    #
                  #              Directorship: Frank Neese              #
                  # Max Planck Institute for Chemical Energy Conversion #
                  #                  D-45470 Muelheim/Ruhr              #
                  #                       Germany                       #
                  #                                                     #
                  #                  All rights reserved                #
                  #                        -***-                        #
                  #######################################################


                         Program Version 3.0.3 - RELEASE   -


 With contributions from (in alphabetic order):
   Ute Becker             : Parallelization
   Dmytro Bykov           : SCF Hessian
   Dmitry Ganyushin       : Spin-Orbit,Spin-Spin,Magnetic field MRCI
   Andreas Hansen         : Spin unrestricted coupled pair/coupled cluster methods
   Dimitrios Liakos       : Extrapolation schemes; parallel MDCI
   Robert Izsak           : Overlap fitted RIJCOSX, COSX-SCS-MP3
   Christian Kollmar      : KDIIS, OOCD, Brueckner-CCSD(T), CCSD density
   Simone Kossmann        : Meta GGA functionals, TD-DFT gradient, OOMP2, MP2 Hessian
   Taras Petrenko         : DFT Hessian,TD-DFT gradient, ASA and ECA modules, normal mode analysis, Resonance Raman, ABS, FL, XAS/XES, NRVS
   Christoph Reimann      : Effective Core Potentials
   Michael Roemelt        : Restricted open shell CIS
   Christoph Riplinger    : Improved optimizer, TS searches, QM/MM, DLPNO-CCSD
   Barbara Sandhoefer     : DKH picture change effects
   Igor Schapiro          : Molecular dynamics
   Kantharuban Sivalingam : CASSCF convergence, NEVPT2
   Boris Wezisla          : Elementary symmetry handling
   Frank Wennmohs         : Technical directorship


 We gratefully acknowledge several colleagues who have allowed us to
 interface, adapt or use parts of their codes:
   Stefan Grimme, W. Hujo, H. Kruse, T. Risthaus : VdW corrections, initial TS optimization,
                                                   DFT functionals, gCP
   Ed Valeev                                     : LibInt (2-el integral package), F12 methods
   Garnet Chan, S. Sharma, R. Olivares           : DMRG
   Ulf Ekstrom                                   : XCFun DFT Library
   Mihaly Kallay                                 : mrcc  (arbitrary order and MRCC methods)
   Andreas Klamt, Michael Diedenhofen            : otool_cosmo (COSMO solvation model)
   Frank Weinhold                                : gennbo (NPA and NBO analysis)
   Christopher J. Cramer and Donald G. Truhlar   : smd solvation model


 Your calculation uses the libint2 library for the computation of 2-el integrals
 For citations please refer to: http://libint.valeyev.net

 This ORCA versions uses:
   CBLAS   interface :  Fast vector & matrix operations
   LAPACKE interface :  Fast linear algebra routines
   SCALAPACK package :  Parallel linear algebra routines


Your calculation utilizes the basis: Ahlrichs-TZV
Cite in your paper:
H - Kr: A. Schaefer, H. Horn and R. Ahlrichs, J. Chem. Phys. 97, 2571 (1992).

The def2-TZV basis will be loaded
Cite in your paper:
 	F. Weigend, R. Ahlrichs, Phys. Chem. Chem. Phys. 2005, 7, 3297.

Your calculation utilizes the atom-pairwise dispersion correction
with the Becke-Johnson damping scheme (D3BJ)
Cite in your paper:
S.Grimme, S.Ehrlich, L.Goerigk, J Comput Chem, (2011), 32, 1456–1465 
S.Grimme, J.Antony, S.Ehrlich and H.Krieg, J.Chem.Phys., 132, (2010), 154104 
   

================================================================================
                                        WARNINGS
                       Please study these warnings very carefully!
================================================================================

WARNING: The RI method has been chosen with no auxiliary basis (AUX or GTOAUX in BASIS block)
        Standard TZV/J expansion basis used (GTOAUX=TZV_J)

Now building the actual basis set
cite the ECPs for Pb [SD(60,MDF)] as follows:
  B. Metz, H. Stoll, M. Dolg, J. Chem. Phys. 113, 2563 (2000).

ECP parameters for Pb [SD(60,MDF)] have been obtained from:
  pseudopotential library of the Stuttgart/Cologne group
  http://www.theochem.uni-stuttgart.de/pseudopotentials/

cite the ECP basis sets for Pb [DEF2-TZVP] as follows:
  F. Weigend, R. Ahlrichs; Phys. Chem. Chem. Phys. 7, 3297(2005).

ECP basis sets for Pb [DEF2-TZVP] have been obtained from:
  Turbomole basis set library
  ftp://ftp.chemie.uni-karlsruhe.de/pub/basen/



INFO   : the flag for use of LIBINT has been found!

================================================================================
                                       INPUT FILE
================================================================================
NAME = PbMACl3_mp2_md2_4.orca
|  1> ! RIJCOSX RI-B2PLYP D3BJ def2-TZVP ECP{def2-TZVP} TIGHTSCF Grid5 FinalGrid6 SlowConv MORead
|  2> %method
|  3>  RunTyp Gradient
|  4>  end
|  5> %maxcore 1000
|  6> %moinp "previous.gbw"
|  7> *xyz 0 1
|  8> C -0.394281 0.276013 -0.426662 
|  9> N -1.165380 -0.685592 -1.253010 
| 10> H 0.248796 -0.278576 0.260517 
| 11> H -1.090820 0.897444 0.140826 
| 12> H 0.215705 0.904875 -1.079130 
| 13> H -1.783150 -1.324970 -0.698370 
| 14> H -0.582260 -1.326300 -1.835140 
| 15> H -1.813140 -0.240924 -1.938260 
| 16> Pb -2.757730 -3.937420 -2.723380 
| 17> Cl -1.356900 -3.274860 -4.777770 
| 18> Cl -2.686020 1.254130 -2.860480 
| 19> Cl -4.741620 -3.425430 -1.166610 
| 20> *
| 21> 
| 22>                          ****END OF INPUT****
================================================================================

                     *******************************
                     * Energy+Gradient Calculation *
                     *******************************

---------------------------------
CARTESIAN COORDINATES (ANGSTROEM)
---------------------------------
  C     -0.394281    0.276013   -0.426662
  N     -1.165380   -0.685592   -1.253010
  H      0.248796   -0.278576    0.260517
  H     -1.090820    0.897444    0.140826
  H      0.215705    0.904875   -1.079130
  H     -1.783150   -1.324970   -0.698370
  H     -0.582260   -1.326300   -1.835140
  H     -1.813140   -0.240924   -1.938260
  Pb    -2.757730   -3.937420   -2.723380
  Cl    -1.356900   -3.274860   -4.777770
  Cl    -2.686020    1.254130   -2.860480
  Cl    -4.741620   -3.425430   -1.166610

----------------------------
CARTESIAN COORDINATES (A.U.)
----------------------------
  NO LB      ZA    FRAG    MASS        X           Y           Z
   0 C     6.0000    0    12.011         -0.745083109808605          0.521588979402006         -0.806274331751109
   1 N     7.0000    0    14.007         -2.202249041949148         -1.295581119607339         -2.367845743064668
   2 H     1.0000    0     1.008          0.470156303215072         -0.526432347483247          0.492305783230763
   3 H     1.0000    0     1.008         -2.061351061403979          1.695923380530824          0.266122572535594
   4 H     1.0000    0     1.008          0.407623375717484          1.709965935431992         -2.039260162898440
   5 H     1.0000    0     1.008         -3.369665155701680         -2.503830435661641         -1.319728040146585
   6 H     1.0000    0     1.008         -1.100311938736988         -2.506343771419756         -3.467912017404246
   7 H     1.0000    0     1.008         -3.426338042457978         -0.455280379088844         -3.662780576334205
   8 Pb   22.0000*   0   207.200  -5.211354451298654  -7.440645474224215  -5.146442358598459
   9 Cl   17.0000    0    35.453         -2.564169391117746         -6.188588526933350         -9.028676830864939
  10 Cl   17.0000    0    35.453         -5.075842190235161          2.369962236334659         -5.405523811559061
  11 Cl   17.0000    0    35.453         -8.960363231123686         -6.473124590917873         -2.204573405093871
* core charge reduced due to ECP

--------------------------------
INTERNAL COORDINATES (ANGSTROEM)
--------------------------------
 C      0   0   0   0.000000     0.000     0.000
 N      1   0   0   1.483957     0.000     0.000
 H      1   2   0   1.092397   109.099     0.000
 H      1   2   3   1.092422   109.061   240.173
 H      1   2   3   1.092367   109.305   120.114
 H      2   1   3   1.047888   114.015    60.210
 H      2   1   3   1.043749   114.711   299.789
 H      2   1   3   1.042540   114.361   179.708
 Pb     6   2   1   3.446065   108.558   195.136
 Cl     9   6   2   2.573291    96.891     4.072
 Cl     8   2   1   1.961529   155.590     0.252
 Cl     9   6   2   2.573225    73.243   214.834

---------------------------
INTERNAL COORDINATES (A.U.)
---------------------------
 C      0   0   0   0.000000     0.000     0.000
 N      1   0   0   2.804273     0.000     0.000
 H      1   2   0   2.064332   109.099     0.000
 H      1   2   3   2.064378   109.061   240.173
 H      1   2   3   2.064274   109.305   120.114
 H      2   1   3   1.980222   114.015    60.210
 H      2   1   3   1.972399   114.711   299.789
 H      2   1   3   1.970116   114.361   179.708
 Pb     6   2   1   6.512120   108.558   195.136
 Cl     9   6   2   4.862816    96.891     4.072
 Cl     8   2   1   3.706752   155.590     0.252
 Cl     9   6   2   4.862690    73.243   214.834

---------------------
BASIS SET INFORMATION
---------------------
There are 5 groups of distinct atoms

 Group   1 Type C   : 11s6p2d1f contracted to 5s3p2d1f pattern {62111/411/11/1}
 Group   2 Type N   : 11s6p2d1f contracted to 5s3p2d1f pattern {62111/411/11/1}
 Group   3 Type H   : 5s1p contracted to 3s1p pattern {311/1}
 Group   4 Type Pb  : 10s9p8d2f contracted to 6s5p3d2f pattern {421111/33111/611/11}
 Group   5 Type Cl  : 14s9p3d1f contracted to 5s5p2d1f pattern {73211/51111/21/1}

Atom   0C    basis set group =>   1
Atom   1N    basis set group =>   2
Atom   2H    basis set group =>   3
Atom   3H    basis set group =>   3
Atom   4H    basis set group =>   3
Atom   5H    basis set group =>   3
Atom   6H    basis set group =>   3
Atom   7H    basis set group =>   3
Atom   8Pb   basis set group =>   4
Atom   9Cl   basis set group =>   5
Atom  10Cl   basis set group =>   5
Atom  11Cl   basis set group =>   5
-------------------------------
AUXILIARY BASIS SET INFORMATION
-------------------------------
There are 5 groups of distinct atoms

 Group   1 Type C   : 12s5p4d2f1g contracted to 6s4p3d1f1g pattern {711111/2111/211/2/1}
 Group   2 Type N   : 12s5p4d2f1g contracted to 6s4p3d1f1g pattern {711111/2111/211/2/1}
 Group   3 Type H   : 5s2p1d contracted to 3s1p1d pattern {311/2/1}
 Group   4 Type Pb  : 31s12p8d6f3g contracted to 31s12p8d6f3g pattern {1111111111111111111111111111111/111111111111/11111111/111111/111}
 Group   5 Type Cl  : 14s5p5d2f1g contracted to 8s4p3d1f1g pattern {71111111/2111/311/2/1}

Atom   0C    basis set group =>   1
Atom   1N    basis set group =>   2
Atom   2H    basis set group =>   3
Atom   3H    basis set group =>   3
Atom   4H    basis set group =>   3
Atom   5H    basis set group =>   3
Atom   6H    basis set group =>   3
Atom   7H    basis set group =>   3
Atom   8Pb   basis set group =>   4
Atom   9Cl   basis set group =>   5
Atom  10Cl   basis set group =>   5
Atom  11Cl   basis set group =>   5

-------------------------
ECP PARAMETER INFORMATION
-------------------------

 Group 1, Type Pb ECP SD(60,MDF) (replacing 60 core electrons, lmax=5)

Atom   8Pb   ECP group =>   1


------------------------------------------------------------------------------
                           ORCA GTO INTEGRAL CALCULATION
                           -- RI-GTO INTEGRALS CHOSEN --
------------------------------------------------------------------------------

                         BASIS SET STATISTICS AND STARTUP INFO

Gaussian basis set:
 # of primitive gaussian shells          ...  186
 # of primitive gaussian functions       ...  420
 # of contracted shells                  ...  101
 # of contracted basis functions         ...  259
 Highest angular momentum                ...    3
 Maximum contraction depth               ...    7
Auxiliary gaussian basis set:
 # of primitive gaussian shells          ...  237
 # of primitive gaussian functions       ...  643
 # of contracted shells                  ...  171
 # of contracted aux-basis functions     ...  493
 Highest angular momentum                ...    4
 Maximum contraction depth               ...    7
Ratio of auxiliary to basis functions    ...  1.90
Integral package used                  ... LIBINT
 One Electron integrals                  
   ECP integrals                         ... done
 Ordering auxiliary basis shells         ... done
 Integral threshhold             Thresh  ...  2.500e-11
 Primitive cut-off               TCut    ...  2.500e-12
 Pre-screening matrix                    ... done
 Shell pair data                         ... 
 Ordering of the shell pairs             ... done (   0.001 sec) 4041 of 5151 pairs
 Determination of significant pairs      ... done (   0.000 sec)
 Creation of shell pair data             ... done (   0.001 sec)
 Storage of shell pair data              ... done (   0.001 sec)
 Shell pair data done in (   0.003 sec)
 Computing two index integrals           ... done
 Cholesky decomposition of the V-matrix  ... done


Timings:
 Total evaluation time                   ...   0.588 sec (  0.010 min)
 One electron matrix time                ...   0.279 sec (  0.005 min) = 47.4%
 Schwartz matrix evaluation time         ...   0.216 sec (  0.004 min) = 36.7%
 Two index repulsion integral time       ...   0.008 sec (  0.000 min) =  1.4%
 Cholesky decomposition of V             ...   0.055 sec (  0.001 min) =  9.4%
 Three index repulsion integral time     ...   0.000 sec (  0.000 min) =  0.0%

-------------------------------------------------------------------------------
                                 ORCA SCF
-------------------------------------------------------------------------------

------------
SCF SETTINGS
------------
Hamiltonian:
 Density Functional     Method          .... DFT(GTOs)
 Exchange Functional    Exchange        .... B88
   X-Alpha parameter    XAlpha          ....  0.666667
   Becke's b parameter  XBeta           ....  0.004200
 Correlation Functional Correlation     .... LYP
 LDA part of GGA corr.  LDAOpt          .... VWN-3
 Gradients option       PostSCFGGA      .... off
 Hybrid DFT is turned on
   Fraction HF Exchange ScalHFX         ....  0.530000
   Scaling of DF-GGA-X  ScalDFX         ....  0.470000
   Scaling of DF-GGA-C  ScalDFC         ....  0.730000
   Scaling of DF-LDA-C  ScalLDAC        ....  0.730000
   Perturbative correction              ....  0.270000
 RI-approximation to the Coulomb term is turned on
   Number of auxiliary basis functions  .... 493
   RIJ-COSX (HFX calculated with COS-X)).... on


General Settings:
 Integral files         IntName         .... PbMACl3_mp2_md2_4.orca
 Hartree-Fock type      HFTyp           .... RHF
 Total Charge           Charge          ....    0
 Multiplicity           Mult            ....    1
 Number of Electrons    NEL             ....   92
 Basis Dimension        Dim             ....  259
 Nuclear Repulsion      ENuc            ....    501.5228810665 Eh

Convergence Acceleration:
 DIIS                   CNVDIIS         .... on
   Start iteration      DIISMaxIt       ....     0
   Startup error        DIISStart       ....  0.200000
   # of expansion vecs  DIISMaxEq       ....     5
   Bias factor          DIISBfac        ....   1.050
   Max. coefficient     DIISMaxC        ....  10.000
 Newton-Raphson         CNVNR           .... off
 SOSCF                  CNVSOSCF        .... on
   Start iteration      SOSCFMaxIt      ....   150
   Startup grad/error   SOSCFStart      ....  0.001000
 Level Shifting         CNVShift        .... on
   Level shift para.    LevelShift      ....    0.2500
   Turn off err/grad.   ShiftErr        ....    0.0000
 Zerner damping         CNVZerner       .... off
 Static damping         CNVDamp         .... on
   Fraction old density DampFac         ....    0.8500
   Max. Damping (<1)    DampMax         ....    0.9800
   Min. Damping (>=0)   DampMin         ....    0.0000
   Turn off err/grad.   DampErr         ....    0.0300
 Fernandez-Rico         CNVRico         .... off

SCF Procedure:
 Maximum # iterations   MaxIter         ....   125
 SCF integral mode      SCFMode         .... Direct
   Integral package                     .... LIBINT
 Reset frequeny         DirectResetFreq ....    20
 Integral Threshold     Thresh          ....  2.500e-11 Eh
 Primitive CutOff       TCut            ....  2.500e-12 Eh

Convergence Tolerance:
 Convergence Check Mode ConvCheckMode   .... Total+1el-Energy
 Energy Change          TolE            ....  1.000e-08 Eh
 1-El. energy change                    ....  1.000e-05 Eh
 Orbital Gradient       TolG            ....  1.000e-05
 Orbital Rotation angle TolX            ....  1.000e-05
 DIIS Error             TolErr          ....  5.000e-07


Diagonalization of the overlap matrix:
Smallest eigenvalue                        ... 1.100e-03
Time for diagonalization                   ...    0.321 sec
Threshold for overlap eigenvalues          ... 1.000e-08
Number of eigenvalues below threshold      ... 0
Time for construction of square roots      ...    0.006 sec
Total time needed                          ...    0.326 sec

---------------------
INITIAL GUESS: MOREAD
---------------------
Guess MOs are being read from file: previous.gbw
Input geometry compatible with but different from current geometry
Input basis set matches current basis set (good)
MOs were renormalized
MOs were reorthogonalized (Schmidt)
                      ------------------
                      INITIAL GUESS DONE (   0.1 sec)
                      ------------------
-------------------
DFT GRID GENERATION
-------------------

General Integration Accuracy     IntAcc      ...  5.010
Radial Grid Type                 RadialGrid  ... Gauss-Chebyshev
Angular Grid (max. acc.)         AngularGrid ... Lebedev-434
Angular grid pruning method      GridPruning ... 3 (G Style)
Weight generation scheme         WeightScheme... Becke
Basis function cutoff            BFCut       ...    1.0000e-11
Integration weight cutoff        WCut        ...    1.0000e-14
Grids for H and He will be reduced by one unit

# of grid points (after initial pruning)     ... 115882 (   0.0 sec)
# of grid points (after weights+screening)   ... 109833 (   0.2 sec)
nearest neighbour list constructed           ...    0.0 sec
Grid point re-assignment to atoms done       ...    0.0 sec
Grid point division into batches done        ...    1.0 sec
Reduced shell lists constructed in    3.4 sec

Total number of grid points                  ...   109833
Total number of batches                      ...     1723
Average number of points per batch           ...       63
Average number of grid points per atom       ...     9153
Average number of shells per batch           ...    48.84 (48.36%)
Average number of basis functions per batch  ...   124.80 (48.19%)
Average number of large shells per batch     ...    36.16 (74.04%)
Average number of large basis fcns per batch ...    91.74 (73.51%)
Maximum spatial batch extension              ...  35.29, 34.71, 35.68 au
Average spatial batch extension              ...   2.50,  2.48,  2.51 au

Time for grid setup =    3.620 sec

--------------------
COSX GRID GENERATION
--------------------

General Integration Accuracy     IntAcc      ...  3.340
Radial Grid Type                 RadialGrid  ... Gauss-Chebyshev
Angular Grid (max. acc.)         AngularGrid ... Lebedev-50
Angular grid pruning method      GridPruning ... 3 (G Style)
Weight generation scheme         WeightScheme... Becke
Basis function cutoff            BFCut       ...    1.0000e-11
Integration weight cutoff        WCut        ...    1.0000e-14
Grids for H and He will be reduced by one unit

# of grid points (after initial pruning)     ...   6578 (   0.0 sec)
# of grid points (after weights+screening)   ...   6249 (   0.0 sec)
nearest neighbour list constructed           ...    0.0 sec
Grid point re-assignment to atoms done       ...    0.0 sec
Grid point division into batches done        ...    0.0 sec
Reduced shell lists constructed in    0.2 sec

Total number of grid points                  ...     6249
Total number of batches                      ...      104
Average number of points per batch           ...       60
Average number of grid points per atom       ...      521
Average number of shells per batch           ...    59.73 (59.14%)
Average number of basis functions per batch  ...   156.13 (60.28%)
Average number of large shells per batch     ...    45.23 (75.72%)
Average number of large basis fcns per batch ...   116.60 (74.68%)
Maximum spatial batch extension              ...  44.74, 33.91, 32.03 au
Average spatial batch extension              ...   6.88,  6.72,  6.64 au

Overlap Fitting                  UseSFitting ... on
Constructing numerical overlap ... done (      0.1 sec)
Inverting numerical overlap    ... done (      0.0 sec)
Obtaining analytic overlap     ... done (      0.0 sec)
Final contraction and storage  ... done (      0.0 sec)


General Integration Accuracy     IntAcc      ...  3.670
Radial Grid Type                 RadialGrid  ... Gauss-Chebyshev
Angular Grid (max. acc.)         AngularGrid ... Lebedev-50
Angular grid pruning method      GridPruning ... 3 (G Style)
Weight generation scheme         WeightScheme... Becke
Basis function cutoff            BFCut       ...    1.0000e-11
Integration weight cutoff        WCut        ...    1.0000e-14
Grids for H and He will be reduced by one unit

# of grid points (after initial pruning)     ...   8124 (   0.0 sec)
# of grid points (after weights+screening)   ...   7694 (   0.0 sec)
nearest neighbour list constructed           ...    0.0 sec
Grid point re-assignment to atoms done       ...    0.0 sec
Grid point division into batches done        ...    0.0 sec
Reduced shell lists constructed in    0.2 sec

Total number of grid points                  ...     7694
Total number of batches                      ...      125
Average number of points per batch           ...       61
Average number of grid points per atom       ...      641
Average number of shells per batch           ...    58.71 (58.13%)
Average number of basis functions per batch  ...   152.90 (59.03%)
Average number of large shells per batch     ...    44.49 (75.79%)
Average number of large basis fcns per batch ...   114.32 (74.77%)
Maximum spatial batch extension              ...  46.50, 33.06, 33.80 au
Average spatial batch extension              ...   6.43,  6.26,  6.04 au

Overlap Fitting                  UseSFitting ... on
Constructing numerical overlap ... done (      0.1 sec)
Inverting numerical overlap    ... done (      0.0 sec)
Obtaining analytic overlap     ... done (      0.0 sec)
Final contraction and storage  ... done (      0.0 sec)


General Integration Accuracy     IntAcc      ...  4.010
Radial Grid Type                 RadialGrid  ... Gauss-Chebyshev
Angular Grid (max. acc.)         AngularGrid ... Lebedev-110
Angular grid pruning method      GridPruning ... 3 (G Style)
Weight generation scheme         WeightScheme... Becke
Basis function cutoff            BFCut       ...    1.0000e-11
Integration weight cutoff        WCut        ...    1.0000e-14
Grids for H and He will be reduced by one unit

# of grid points (after initial pruning)     ...  15170 (   0.0 sec)
# of grid points (after weights+screening)   ...  14503 (   0.0 sec)
nearest neighbour list constructed           ...    0.0 sec
Grid point re-assignment to atoms done       ...    0.0 sec
Grid point division into batches done        ...    0.0 sec
Reduced shell lists constructed in    0.4 sec

Total number of grid points                  ...    14503
Total number of batches                      ...      232
Average number of points per batch           ...       62
Average number of grid points per atom       ...     1209
Average number of shells per batch           ...    55.36 (54.81%)
Average number of basis functions per batch  ...   143.97 (55.59%)
Average number of large shells per batch     ...    41.55 (75.05%)
Average number of large basis fcns per batch ...   106.40 (73.91%)
Maximum spatial batch extension              ...  29.18, 29.31, 32.39 au
Average spatial batch extension              ...   5.46,  5.26,  5.15 au

Overlap Fitting                  UseSFitting ... on
Constructing numerical overlap ... done (      0.2 sec)
Inverting numerical overlap    ... done (      0.0 sec)
Obtaining analytic overlap     ... done (      0.0 sec)
Final contraction and storage  ... done (      0.0 sec)

Time for X-Grid setup             =    1.416 sec
--------------
SCF ITERATIONS
--------------
ITER       Energy         Delta-E        Max-DP      RMS-DP      [F,P]     Damp
               ***  Starting incremental Fock matrix formation  ***
  0  -1668.5928282486   0.000000000000 0.03126261  0.00050830  0.5754375 0.8500
  1  -1668.6337634287  -0.040935180074 0.02853003  0.00059678  0.4896843 0.8500
                               ***Turning on DIIS***
  2  -1668.6728783815  -0.039114952840 0.02442827  0.00057286  0.4165027 0.8500
  3  -1668.7070400231  -0.034161641534 0.02271284  0.00051577  0.3542412 0.8500
  4  -1668.7369623152  -0.029922292140 0.02097808  0.00047569  0.3012212 0.8500
  5  -1668.7630879389  -0.026125623703 0.01932519  0.00044166  0.2560893 0.8500
  6  -1668.7861845135  -0.023096574595 0.01762228  0.00040536  0.2177051 0.8500
  7  -1668.8066690662  -0.020484552711 0.01596763  0.00036948  0.1850713 0.8500
  8  -1668.8248045472  -0.018135480997 0.01424627  0.00033202  0.1573315 0.8500
  9  -1668.8407244125  -0.015919865290 0.01252888  0.00029456  0.1337494 0.8500
 10  -1668.8546407173  -0.013916304786 0.01092977  0.00025956  0.1137006 0.8500
 11  -1668.8667846099  -0.012143892628 0.00950294  0.00022805  0.0966561 0.8500
 12  -1668.8773656485  -0.010581038544 0.00824901  0.00020005  0.0821661 0.8500
 13  -1668.8865666481  -0.009200999650 0.00714455  0.00017511  0.0698481 0.8500
 14  -1668.8945486612  -0.007982013087 0.00617092  0.00015290  0.0593766 0.8500
 15  -1668.9014576483  -0.006908987104 0.00531761  0.00013323  0.0504748 0.8500
 16  -1668.9074263132  -0.005968664918 0.00457574  0.00011594  0.0429074 0.8500
 17  -1668.9125739420  -0.005147628737 0.00393437  0.00010079  0.0364745 0.8500
 18  -1668.9170067038  -0.004432761821 0.00338108  0.00008757  0.0310060 0.8500
 19  -1668.9208184660  -0.003811762240 0.01944857  0.00050684  0.0263572 0.0000
               *** Restarting incremental Fock matrix formation ***
                                   *** Resetting DIIS ***
                      *** Initiating the SOSCF procedure ***
                           *** Shutting down DIIS ***
                      *** Re-Reading the Fockian *** 
                      *** Removing any level shift *** 
ITER      Energy       Delta-E        Grad      Rot      Max-DP    RMS-DP
 20  -1668.94590205  -0.0250835796  0.000881  0.000881  0.001753  0.000033
               *** Restarting incremental Fock matrix formation ***
 21  -1668.94330931   0.0025927400  0.000734  0.003543  0.001756  0.000042
 22  -1668.94332140  -0.0000120990  0.000300  0.003209  0.001226  0.000030
 23  -1668.94332410  -0.0000026960  0.000276  0.000237  0.000516  0.000010
 24  -1668.94332525  -0.0000011464  0.000047  0.000153  0.000101  0.000002
 25  -1668.94332538  -0.0000001344  0.000011  0.000049  0.000036  0.000001
 26  -1668.94332538   0.0000000039  0.000007  0.000041  0.000023  0.000000
                  ***Gradient check signals convergence***
              ***Rediagonalizing the Fockian in SOSCF/NRSCF***

               *****************************************************
               *                     SUCCESS                       *
               *           SCF CONVERGED AFTER  27 CYCLES          *
               *****************************************************

Old exchange energy                            =    -59.144965400 Eh
New exchange energy                            =    -59.147299072 Eh
Exchange energy change after final integration =     -0.002333672 Eh
Total energy after final integration           =  -1668.945659068 Eh
Final COS-X integration done in                =    17.468 sec

----------------
TOTAL SCF ENERGY
----------------

Total Energy       :        -1668.94565907 Eh          -45414.32020 eV

Components:
Nuclear Repulsion  :          501.52288107 Eh           13647.13140 eV
Electronic Energy  :        -2170.46854013 Eh          -59061.45160 eV

One Electron Energy:        -3372.90555806 Eh          -91781.42631 eV
Two Electron Energy:         1202.43701792 Eh           32719.97471 eV

Virial components:
Potential Energy   :        -3206.31908364 Eh          -87248.37789 eV
Kinetic Energy     :         1537.37342457 Eh           41834.05768 eV
Virial Ratio       :            2.08558248


DFT components:
N(Alpha)           :       46.000011532165 electrons
N(Beta)            :       46.000011532165 electrons
N(Total)           :       92.000023064330 electrons
E(X)               :      -52.539372938676 Eh       
E(C)               :       -2.592979025619 Eh       
E(XC)              :      -55.132351964295 Eh       

---------------
SCF CONVERGENCE
---------------

  Last Energy change         ...   -1.8217e-08  Tolerance :   1.0000e-08
  Last MAX-Density change    ...    1.5010e-13  Tolerance :   1.0000e-07
  Last RMS-Density change    ...    1.2669e-15  Tolerance :   5.0000e-09
  Last Orbital Gradient      ...    1.4810e-06  Tolerance :   1.0000e-05
  Last Orbital Rotation      ...    4.3854e-06  Tolerance :   1.0000e-05

             **** THE GBW FILE WAS UPDATED (PbMACl3_mp2_md2_4.orca.gbw) ****
             **** DENSITY FILE WAS UPDATED (PbMACl3_mp2_md2_4.orca.scfp.tmp) ****
             **** ENERGY FILE WAS UPDATED (PbMACl3_mp2_md2_4.orca.en.tmp) ****
----------------
ORBITAL ENERGIES
----------------

  NO   OCC          E(Eh)            E(eV) 
   0   2.0000    -102.883413     -2799.6000 
   1   2.0000    -102.882650     -2799.5792 
   2   2.0000    -102.757610     -2796.1767 
   3   2.0000     -14.989762      -407.8922 
   4   2.0000     -10.713545      -291.5304 
   5   2.0000      -9.889508      -269.1072 
   6   2.0000      -9.888709      -269.0855 
   7   2.0000      -9.763711      -265.6841 
   8   2.0000      -7.526339      -204.8021 
   9   2.0000      -7.525546      -204.7805 
  10   2.0000      -7.525079      -204.7678 
  11   2.0000      -7.524509      -204.7523 
  12   2.0000      -7.524283      -204.7462 
  13   2.0000      -7.523710      -204.7305 
  14   2.0000      -7.400497      -201.3778 
  15   2.0000      -7.399439      -201.3490 
  16   2.0000      -7.399404      -201.3480 
  17   2.0000      -5.876194      -159.8994 
  18   2.0000      -3.651045       -99.3500 
  19   2.0000      -3.647867       -99.2635 
  20   2.0000      -3.641140       -99.0805 
  21   2.0000      -1.159096       -31.5406 
  22   2.0000      -1.041525       -28.3413 
  23   2.0000      -1.039779       -28.2938 
  24   2.0000      -1.036258       -28.1980 
  25   2.0000      -1.033372       -28.1195 
  26   2.0000      -1.031968       -28.0813 
  27   2.0000      -0.895294       -24.3622 
  28   2.0000      -0.894263       -24.3341 
  29   2.0000      -0.869001       -23.6467 
  30   2.0000      -0.777671       -21.1615 
  31   2.0000      -0.689198       -18.7540 
  32   2.0000      -0.673236       -18.3197 
  33   2.0000      -0.613310       -16.6890 
  34   2.0000      -0.602762       -16.4020 
  35   2.0000      -0.523166       -14.2361 
  36   2.0000      -0.522745       -14.2246 
  37   2.0000      -0.424289       -11.5455 
  38   2.0000      -0.381089       -10.3700 
  39   2.0000      -0.379342       -10.3224 
  40   2.0000      -0.369421       -10.0524 
  41   2.0000      -0.368028       -10.0145 
  42   2.0000      -0.327588        -8.9141 
  43   2.0000      -0.270467        -7.3598 
  44   2.0000      -0.258035        -7.0215 
  45   2.0000      -0.257361        -7.0032 
  46   0.0000      -0.120266        -3.2726 
  47   0.0000      -0.093690        -2.5494 
  48   0.0000       0.008978         0.2443 
  49   0.0000       0.010748         0.2925 
  50   0.0000       0.061860         1.6833 
  51   0.0000       0.065918         1.7937 
  52   0.0000       0.086507         2.3540 
  53   0.0000       0.098638         2.6841 
  54   0.0000       0.110514         3.0072 
  55   0.0000       0.128029         3.4838 
  56   0.0000       0.131193         3.5699 
  57   0.0000       0.135811         3.6956 
  58   0.0000       0.157027         4.2729 
  59   0.0000       0.175677         4.7804 
  60   0.0000       0.187705         5.1077 
  61   0.0000       0.196523         5.3477 
  62   0.0000       0.227667         6.1951 
  63   0.0000       0.245667         6.6849 
  64   0.0000       0.253355         6.8941 
  65   0.0000       0.256474         6.9790 
  66   0.0000       0.283026         7.7015 
  67   0.0000       0.290889         7.9155 
  68   0.0000       0.305507         8.3133 
  69   0.0000       0.334945         9.1143 
  70   0.0000       0.386560        10.5188 
  71   0.0000       0.393691        10.7129 
  72   0.0000       0.410045        11.1579 
  73   0.0000       0.420803        11.4506 
  74   0.0000       0.426145        11.5960 
  75   0.0000       0.436676        11.8826 
  76   0.0000       0.441007        12.0004 
  77   0.0000       0.447874        12.1873 
  78   0.0000       0.465618        12.6701 
  79   0.0000       0.468215        12.7408 
  80   0.0000       0.481340        13.0979 
  81   0.0000       0.491691        13.3796 
  82   0.0000       0.494419        13.4538 
  83   0.0000       0.495314        13.4782 
  84   0.0000       0.501620        13.6498 
  85   0.0000       0.515063        14.0156 
  86   0.0000       0.527236        14.3468 
  87   0.0000       0.528814        14.3898 
  88   0.0000       0.542802        14.7704 
  89   0.0000       0.550194        14.9715 
  90   0.0000       0.557117        15.1599 
  91   0.0000       0.563717        15.3395 
  92   0.0000       0.577678        15.7194 
  93   0.0000       0.582753        15.8575 
  94   0.0000       0.595935        16.2162 
  95   0.0000       0.603474        16.4214 
  96   0.0000       0.626014        17.0347 
  97   0.0000       0.633722        17.2445 
  98   0.0000       0.637132        17.3372 
  99   0.0000       0.650254        17.6943 
 100   0.0000       0.661807        18.0087 
 101   0.0000       0.668949        18.2030 
 102   0.0000       0.681305        18.5392 
 103   0.0000       0.705533        19.1985 
 104   0.0000       0.711997        19.3744 
 105   0.0000       0.727539        19.7974 
 106   0.0000       0.729449        19.8493 
 107   0.0000       0.733999        19.9731 
 108   0.0000       0.769268        20.9329 
 109   0.0000       0.794253        21.6127 
 110   0.0000       0.803197        21.8561 
 111   0.0000       0.816301        22.2127 
 112   0.0000       0.854970        23.2649 
 113   0.0000       0.867693        23.6111 
 114   0.0000       0.887405        24.1475 
 115   0.0000       0.901570        24.5330 
 116   0.0000       0.919560        25.0225 
 117   0.0000       0.990091        26.9418 
 118   0.0000       1.007567        27.4173 
 119   0.0000       1.010794        27.5051 
 120   0.0000       1.031454        28.0673 
 121   0.0000       1.037836        28.2410 
 122   0.0000       1.060537        28.8587 
 123   0.0000       1.099368        29.9153 
 124   0.0000       1.179391        32.0929 
 125   0.0000       1.201826        32.7034 
 126   0.0000       1.222231        33.2586 
 127   0.0000       1.259826        34.2816 
 128   0.0000       1.288827        35.0708 
 129   0.0000       1.342406        36.5287 
 130   0.0000       1.489364        40.5277 
 131   0.0000       1.563878        42.5553 
 132   0.0000       1.567799        42.6620 
 133   0.0000       1.583120        43.0789 
 134   0.0000       1.597446        43.4687 
 135   0.0000       1.600782        43.5595 
 136   0.0000       1.694488        46.1094 
 137   0.0000       1.799139        48.9571 
 138   0.0000       1.827118        49.7184 
 139   0.0000       1.868890        50.8551 
 140   0.0000       1.874754        51.0147 
 141   0.0000       1.880557        51.1726 
 142   0.0000       1.891489        51.4700 
 143   0.0000       1.898341        51.6565 
 144   0.0000       1.901058        51.7304 
 145   0.0000       1.920602        52.2622 
 146   0.0000       1.949049        53.0363 
 147   0.0000       1.963186        53.4210 
 148   0.0000       1.964828        53.4657 
 149   0.0000       1.967703        53.5439 
 150   0.0000       1.997191        54.3463 
 151   0.0000       1.998661        54.3863 
 152   0.0000       2.009367        54.6777 
 153   0.0000       2.017604        54.9018 
 154   0.0000       2.023640        55.0661 
 155   0.0000       2.042536        55.5802 
 156   0.0000       2.045405        55.6583 
 157   0.0000       2.077889        56.5422 
 158   0.0000       2.082995        56.6812 
 159   0.0000       2.091769        56.9199 
 160   0.0000       2.098209        57.0952 
 161   0.0000       2.101991        57.1981 
 162   0.0000       2.107429        57.3461 
 163   0.0000       2.119978        57.6875 
 164   0.0000       2.129476        57.9460 
 165   0.0000       2.162995        58.8581 
 166   0.0000       2.170258        59.0557 
 167   0.0000       2.230184        60.6864 
 168   0.0000       2.230528        60.6958 
 169   0.0000       2.231178        60.7134 
 170   0.0000       2.232932        60.7612 
 171   0.0000       2.233339        60.7722 
 172   0.0000       2.236530        60.8591 
 173   0.0000       2.238772        60.9201 
 174   0.0000       2.263556        61.5945 
 175   0.0000       2.269798        61.7643 
 176   0.0000       2.273161        61.8559 
 177   0.0000       2.275240        61.9124 
 178   0.0000       2.317885        63.0729 
 179   0.0000       2.334904        63.5360 
 180   0.0000       2.337849        63.6161 
 181   0.0000       2.342933        63.7544 
 182   0.0000       2.347862        63.8886 
 183   0.0000       2.347984        63.8919 
 184   0.0000       2.354255        64.0625 
 185   0.0000       2.356147        64.1140 
 186   0.0000       2.363987        64.3274 
 187   0.0000       2.367498        64.4229 
 188   0.0000       2.371632        64.5354 
 189   0.0000       2.373784        64.5939 
 190   0.0000       2.388276        64.9883 
 191   0.0000       2.391894        65.0867 
 192   0.0000       2.395072        65.1732 
 193   0.0000       2.413367        65.6711 
 194   0.0000       2.417655        65.7878 
 195   0.0000       2.455322        66.8127 
 196   0.0000       2.462418        67.0058 
 197   0.0000       2.466314        67.1118 
 198   0.0000       2.480697        67.5032 
 199   0.0000       2.507565        68.2343 
 200   0.0000       2.530096        68.8474 
 201   0.0000       2.537411        69.0465 
 202   0.0000       2.612924        71.1013 
 203   0.0000       2.628457        71.5239 
 204   0.0000       2.651532        72.1518 
 205   0.0000       2.697300        73.3973 
 206   0.0000       2.731369        74.3243 
 207   0.0000       2.769635        75.3656 
 208   0.0000       2.797882        76.1342 
 209   0.0000       2.849770        77.5462 
 210   0.0000       2.969880        80.8145 
 211   0.0000       3.046441        82.8979 
 212   0.0000       3.110489        84.6407 
 213   0.0000       3.122273        84.9614 
 214   0.0000       3.181501        86.5730 
 215   0.0000       3.199063        87.0509 
 216   0.0000       3.204325        87.1941 
 217   0.0000       3.280534        89.2679 
 218   0.0000       3.394936        92.3809 
 219   0.0000       3.550185        96.6054 
 220   0.0000       3.565219        97.0145 
 221   0.0000       3.584771        97.5466 
 222   0.0000       3.751771       102.0909 
 223   0.0000       3.796787       103.3158 
 224   0.0000       3.897000       106.0428 
 225   0.0000       4.159841       113.1950 
 226   0.0000       4.176778       113.6559 
 227   0.0000       4.384358       119.3044 
 228   0.0000       4.442641       120.8904 
 229   0.0000       4.822892       131.2376 
 230   0.0000       4.830100       131.4337 
 231   0.0000       4.922427       133.9460 
 232   0.0000       4.928082       134.0999 
 233   0.0000       5.037403       137.0747 
 234   0.0000       5.074242       138.0771 
 235   0.0000       5.127539       139.5274 
 236   0.0000       5.295844       144.1073 
 237   0.0000       5.448837       148.2704 
 238   0.0000       5.486453       149.2940 
 239   0.0000       5.793161       157.6399 
 240   0.0000      11.012344       299.6611 
 241   0.0000      11.028924       300.1123 
 242   0.0000      11.031526       300.1831 
 243   0.0000      11.038941       300.3849 
 244   0.0000      11.126805       302.7758 
 245   0.0000      11.130582       302.8785 
 246   0.0000      11.135168       303.0033 
 247   0.0000      11.146587       303.3140 
 248   0.0000      11.205051       304.9049 
 249   0.0000      22.647348       616.2657 
 250   0.0000      24.921983       678.1616 
 251   0.0000      25.051198       681.6778 
 252   0.0000      25.092773       682.8091 
 253   0.0000      32.288973       878.6276 
 254   0.0000      35.422778       963.9028 
 255   0.0000      35.630381       969.5520 
 256   0.0000      35.662370       970.4224 
 257   0.0000      35.735351       972.4083 
 258   0.0000     123.509451      3360.8630 

                    ********************************
                    * MULLIKEN POPULATION ANALYSIS *
                    ********************************

-----------------------
MULLIKEN ATOMIC CHARGES
-----------------------
   0 C :   -0.229292
   1 N :   -0.302489
   2 H :    0.134931
   3 H :    0.175383
   4 H :    0.175342
   5 H :    0.269798
   6 H :    0.272338
   7 H :    0.257000
   8 Pb:    0.926961
   9 Cl:   -0.460822
  10 Cl:   -0.753628
  11 Cl:   -0.465522
Sum of atomic charges:   -0.0000000

--------------------------------
MULLIKEN REDUCED ORBITAL CHARGES
--------------------------------
  0 C s       :     3.257361  s :     3.257361
      pz      :     0.982809  p :     2.899687
      px      :     1.003062
      py      :     0.913815
      dz2     :     0.005673  d :     0.066175
      dxz     :     0.017816
      dyz     :     0.018353
      dx2y2   :     0.006029
      dxy     :     0.018305
      f0      :     0.000358  f :     0.006069
      f+1     :     0.000491
      f-1     :     0.000676
      f+2     :     0.000747
      f-2     :     0.002693
      f+3     :     0.000532
      f-3     :     0.000572
  1 N s       :     3.430869  s :     3.430869
      pz      :     1.277348  p :     3.818982
      px      :     1.273112
      py      :     1.268522
      dz2     :     0.005669  d :     0.050372
      dxz     :     0.013161
      dyz     :     0.012368
      dx2y2   :     0.006448
      dxy     :     0.012726
      f0      :     0.000133  f :     0.002266
      f+1     :     0.000179
      f-1     :     0.000212
      f+2     :     0.000232
      f-2     :     0.001157
      f+3     :     0.000169
      f-3     :     0.000185
  2 H s       :     0.843815  s :     0.843815
      pz      :     0.008189  p :     0.021254
      px      :     0.007670
      py      :     0.005395
  3 H s       :     0.802294  s :     0.802294
      pz      :     0.006680  p :     0.022323
      px      :     0.007651
      py      :     0.007992
  4 H s       :     0.802326  s :     0.802326
      pz      :     0.007071  p :     0.022332
      px      :     0.007168
      py      :     0.008093
  5 H s       :     0.697337  s :     0.697337
      pz      :     0.009472  p :     0.032865
      px      :     0.011862
      py      :     0.011531
  6 H s       :     0.694554  s :     0.694554
      pz      :     0.011496  p :     0.033109
      px      :     0.009868
      py      :     0.011745
  7 H s       :     0.694419  s :     0.694419
      pz      :     0.017521  p :     0.048581
      px      :     0.016294
      py      :     0.014767
  8 Pbs       :     3.955090  s :     3.955090
      pz      :     2.318716  p :     6.896175
      px      :     2.310081
      py      :     2.267378
      dz2     :     2.042894  d :    10.184961
      dxz     :     2.063002
      dyz     :     2.027263
      dx2y2   :     2.027067
      dxy     :     2.024735
      f0      :     0.005355  f :     0.036813
      f+1     :     0.008372
      f-1     :     0.003243
      f+2     :     0.006515
      f-2     :     0.007463
      f+3     :     0.002865
      f-3     :     0.002999
  9 Cls       :     5.959351  s :     5.959351
      pz      :     3.779226  p :    11.483241
      px      :     3.806417
      py      :     3.897598
      dz2     :     0.004646  d :     0.017507
      dxz     :     0.006762
      dyz     :     0.003212
      dx2y2   :     0.001484
      dxy     :     0.001401
      f0      :     0.000099  f :     0.000723
      f+1     :     0.000239
      f-1     :     0.000082
      f+2     :     0.000124
      f-2     :     0.000122
      f+3     :     0.000027
      f-3     :     0.000031
 10 Cls       :     5.961610  s :     5.961610
      pz      :     3.955464  p :    11.785021
      px      :     3.958854
      py      :     3.870703
      dz2     :     0.000759  d :     0.006692
      dxz     :     0.000903
      dyz     :     0.001973
      dx2y2   :     0.001271
      dxy     :     0.001786
      f0      :     0.000048  f :     0.000305
      f+1     :     0.000010
      f-1     :     0.000019
      f+2     :     0.000043
      f-2     :     0.000094
      f+3     :     0.000073
      f-3     :     0.000018
 11 Cls       :     5.959239  s :     5.959239
      pz      :     3.794491  p :    11.488196
      px      :     3.794093
      py      :     3.899612
      dz2     :     0.002373  d :     0.017366
      dxz     :     0.007234
      dyz     :     0.001428
      dx2y2   :     0.003617
      dxy     :     0.002714
      f0      :     0.000077  f :     0.000720
      f+1     :     0.000169
      f-1     :     0.000020
      f+2     :     0.000202
      f-2     :     0.000114
      f+3     :     0.000069
      f-3     :     0.000070


                     *******************************
                     * LOEWDIN POPULATION ANALYSIS *
                     *******************************

----------------------
LOEWDIN ATOMIC CHARGES
----------------------
   0 C :   -0.275015
   1 N :    0.095902
   2 H :    0.115086
   3 H :    0.134158
   4 H :    0.133993
   5 H :    0.196028
   6 H :    0.195133
   7 H :    0.112903
   8 Pb:    0.387266
   9 Cl:   -0.197073
  10 Cl:   -0.697626
  11 Cl:   -0.200755

-------------------------------
LOEWDIN REDUCED ORBITAL CHARGES
-------------------------------
  0 C s       :     2.857772  s :     2.857772
      pz      :     1.036192  p :     3.085828
      px      :     1.048625
      py      :     1.001012
      dz2     :     0.025984  d :     0.294532
      dxz     :     0.079179
      dyz     :     0.079962
      dx2y2   :     0.030720
      dxy     :     0.078687
      f0      :     0.005240  f :     0.036882
      f+1     :     0.003787
      f-1     :     0.005577
      f+2     :     0.004179
      f-2     :     0.007373
      f+3     :     0.004983
      f-3     :     0.005744
  1 N s       :     3.007430  s :     3.007430
      pz      :     1.246572  p :     3.722920
      px      :     1.242316
      py      :     1.234032
      dz2     :     0.017795  d :     0.164151
      dxz     :     0.040534
      dyz     :     0.042654
      dx2y2   :     0.019303
      dxy     :     0.043865
      f0      :     0.001540  f :     0.009597
      f+1     :     0.001121
      f-1     :     0.001394
      f+2     :     0.001050
      f-2     :     0.001714
      f+3     :     0.001283
      f-3     :     0.001496
  2 H s       :     0.822878  s :     0.822878
      pz      :     0.022909  p :     0.062036
      px      :     0.021790
      py      :     0.017337
  3 H s       :     0.802332  s :     0.802332
      pz      :     0.018816  p :     0.063510
      px      :     0.023102
      py      :     0.021592
  4 H s       :     0.802493  s :     0.802493
      pz      :     0.021456  p :     0.063514
      px      :     0.020217
      py      :     0.021841
  5 H s       :     0.707605  s :     0.707605
      pz      :     0.030833  p :     0.096367
      px      :     0.032915
      py      :     0.032619
  6 H s       :     0.707216  s :     0.707216
      pz      :     0.031972  p :     0.097652
      px      :     0.032383
      py      :     0.033297
  7 H s       :     0.721696  s :     0.721696
      pz      :     0.060192  p :     0.165401
      px      :     0.055611
      py      :     0.049598
  8 Pbs       :     3.836318  s :     3.836318
      pz      :     2.430215  p :     7.164622
      px      :     2.413563
      py      :     2.320844
      dz2     :     2.101901  d :    10.513375
      dxz     :     2.212788
      dyz     :     2.065815
      dx2y2   :     2.075035
      dxy     :     2.057835
      f0      :     0.012605  f :     0.098420
      f+1     :     0.024603
      f-1     :     0.008238
      f+2     :     0.019329
      f-2     :     0.019468
      f+3     :     0.006726
      f-3     :     0.007451
  9 Cls       :     5.782161  s :     5.782161
      pz      :     3.755802  p :    11.382631
      px      :     3.771788
      py      :     3.855041
      dz2     :     0.007491  d :     0.030760
      dxz     :     0.014129
      dyz     :     0.005353
      dx2y2   :     0.001557
      dxy     :     0.002229
      f0      :     0.000077  f :     0.001522
      f+1     :     0.000690
      f-1     :     0.000202
      f+2     :     0.000191
      f-2     :     0.000293
      f+3     :     0.000019
      f-3     :     0.000049
 10 Cls       :     5.929938  s :     5.929938
      pz      :     3.942949  p :    11.758037
      px      :     3.947751
      py      :     3.867337
      dz2     :     0.000865  d :     0.009137
      dxz     :     0.001098
      dyz     :     0.002918
      dx2y2   :     0.001612
      dxy     :     0.002644
      f0      :     0.000086  f :     0.000514
      f+1     :     0.000010
      f-1     :     0.000020
      f+2     :     0.000070
      f-2     :     0.000174
      f+3     :     0.000134
      f-3     :     0.000018
 11 Cls       :     5.781998  s :     5.781998
      pz      :     3.761711  p :    11.386554
      px      :     3.768678
      py      :     3.856164
      dz2     :     0.001770  d :     0.030682
      dxz     :     0.016186
      dyz     :     0.002030
      dx2y2   :     0.006864
      dxy     :     0.003833
      f0      :     0.000194  f :     0.001520
      f+1     :     0.000242
      f-1     :     0.000024
      f+2     :     0.000551
      f-2     :     0.000232
      f+3     :     0.000133
      f-3     :     0.000144


                      *****************************
                      * MAYER POPULATION ANALYSIS *
                      *****************************

  NA   - Mulliken gross atomic population
  ZA   - Total nuclear charge
  QA   - Mulliken gross atomic charge
  VA   - Mayer's total valence
  BVA  - Mayer's bonded valence
  FA   - Mayer's free valence

  ATOM       NA         ZA         QA         VA         BVA        FA
  0 C      6.2293     6.0000    -0.2293     3.8045     3.8045     0.0000
  1 N      7.3025     7.0000    -0.3025     3.2831     3.2831    -0.0000
  2 H      0.8651     1.0000     0.1349     0.9606     0.9606    -0.0000
  3 H      0.8246     1.0000     0.1754     0.9782     0.9782     0.0000
  4 H      0.8247     1.0000     0.1753     0.9778     0.9778    -0.0000
  5 H      0.7302     1.0000     0.2698     0.9369     0.9369    -0.0000
  6 H      0.7277     1.0000     0.2723     0.9359     0.9359     0.0000
  7 H      0.7430     1.0000     0.2570     1.0894     1.0894    -0.0000
  8 Pb    21.0730    22.0000     0.9270     1.8142     1.8142    -0.0000
  9 Cl    17.4608    17.0000    -0.4608     0.9328     0.9328    -0.0000
 10 Cl    17.7536    17.0000    -0.7536     0.4438     0.4438     0.0000
 11 Cl    17.4655    17.0000    -0.4655     0.9250     0.9250     0.0000

  Mayer bond orders larger than 0.1
B(  0-C ,  1-N ) :   0.8873 B(  0-C ,  2-H ) :   0.9639 B(  0-C ,  3-H ) :   0.9628 
B(  0-C ,  4-H ) :   0.9631 B(  1-N ,  5-H ) :   0.8960 B(  1-N ,  6-H ) :   0.8951 
B(  1-N ,  7-H ) :   0.6818 B(  7-H , 10-Cl) :   0.4059 B(  8-Pb,  9-Cl) :   0.8958 
B(  8-Pb, 11-Cl) :   0.8885 

-------
TIMINGS
-------

Total SCF time: 0 days 0 hours 5 min 10 sec 

Total time                  ....     310.773 sec
Sum of individual times     ....     292.335 sec  ( 94.1%)

Fock matrix formation       ....     286.036 sec  ( 92.0%)
  Coulomb formation         ....     220.758 sec  ( 77.2% of F)
  Split-RI-J                ....      20.547 sec  (  7.2% of F)
  Chain of spheres X        ....     217.558 sec  ( 76.1% of F)
  COS-X 1 center corr.      ....       0.000 sec  (  0.0% of F)
  XC integration            ....      65.304 sec  ( 22.8% of F)
    Basis function eval.    ....      31.470 sec  ( 48.2% of XC)
    Density eval.           ....      13.741 sec  ( 21.0% of XC)
    XC-Functional eval.     ....       4.259 sec  (  6.5% of XC)
    XC-Potential eval.      ....      14.492 sec  ( 22.2% of XC)
Diagonalization             ....       0.700 sec  (  0.2%)
Density matrix formation    ....       0.048 sec  (  0.0%)
Population analysis         ....       0.073 sec  (  0.0%)
Initial guess               ....       0.115 sec  (  0.0%)
Orbital Transformation      ....       0.000 sec  (  0.0%)
Orbital Orthonormalization  ....       0.112 sec  (  0.0%)
DIIS solution               ....       0.191 sec  (  0.1%)
SOSCF solution              ....       0.137 sec  (  0.0%)
Grid generation             ....       5.036 sec  (  1.6%)

------------------------------------------------------------------------------
                              ORCA MP2 CALCULATION
------------------------------------------------------------------------------


----------------------
RI-MP2 ENERGY+GRADIENT
----------------------
Dimension of the basis                    ...  259
Memory devoted to MP2                     ... 1000 MB   
Data format for buffers                   ... DOUBLE
Compression type for matrix containers    ... UNCOMPRESSED
Overall scaling of the MP2 energy         ...   2.700e-01 Eh
Calculating two index integrals           ... done (    0.013 sec)
Cholesky decomposition of the V-matrix    ... done
Cholesky decomposition of V**-1           ... done (    0.037 sec)

-----------------
RI-TRANSFORMATION (AUX index driven)
-----------------

Dimension of the orbital-basis         ... 259
Dimension of the aux-basis             ... 493
Transformation of internal MOs         ...    0-  45
Transformation of internal/external MOs...    0-  45 to   46- 258
Number Format for Storage              ... Double (8 Byte)
Integral mode                          ... Direct

First Phase: integral generation and transformation of MO indices
  Aux angular momentum 0               ... done (    0.393 sec)
  Aux angular momentum 1               ... done (    0.344 sec)
  Aux angular momentum 2               ... done (    0.409 sec)
  Aux angular momentum 3               ... done (    0.229 sec)
  Aux angular momentum 4               ... done (    0.200 sec)
Closing buffer VIJ ( 0.00 GB; CompressionRatio= 1.95)
Closing buffer VIA ( 0.04 GB; CompressionRatio= 1.00)
  Phase 1 completed in     1.698 sec
Second Phase: sorting and transformation of aux index

IJ-Transformation
Memory available                       ... 990 MB 
Max. # MO pairs treated in a batch     ... 46    
# of internal orbitals                 ... 46
# batches for internal orbitals        ... 1
Closing buffer IJV ( 0.00 GB; CompressionRatio= 1.00)
(ij|v) transformation done in     0.127 sec

IA-Transformation
Memory available                       ... 990 MB 
Max. # MO pairs treated in a batch     ... 46    
# of internal orbitals                 ... 46
# batches for internal orbitals        ... 1
Closing buffer IAV ( 0.04 GB; CompressionRatio= 1.00)
(ia|v) transformation done in     0.404 sec

  Phase 2 completed in     0.630 sec
RI-Integral transformation completed in     2.329 sec
Opening buffers                              ... done

Starting loop over batches of integrals:

Operator 0  - window                       ... (  0- 45)x( 46-258)
Operator 0  - Memory available             ...  1000 MB
Operator 0  - Memory needed per MO         ...   1.6 MB
Operator 0  - Number of orbitals per batch ... 46
Operator 0  - Number of batches            ... 1

OPERATOR  0   PASS   0:  MOs     0 ...   45
  Reading integrals       ... ok
  Internal MO   2
  Internal MO   5
  Internal MO   8
  Internal MO  11
  Internal MO  14
  Internal MO  17
  Internal MO  20
  Internal MO  23
  Internal MO  26
  Internal MO  29
  Internal MO  32
  Internal MO  35
  Internal MO  38
  Internal MO  41
  Internal MO  44
Closing buffer GIPV ( 0.04 GB; CompressionRatio= 1.00)
Time spent in pair loops =    45.424 sec

-----------------------------------------------
 RI-MP2 CORRELATION ENERGY:     -0.574201119 Eh
-----------------------------------------------


---------------------
MP2 DENSITY FORMATION
---------------------

Completing the external part of the density      ... done
Storing the unrelaxed density                    ... done

Calculating the xc-kernel                        ... done
Calculating G(D)                                 ... done
Completing the Lagrangian                        ... done
Solving the Z-vector equations                   ... 

------------------------------------------------------------------------------
                           ORCA CP-SCF CALCULATION
------------------------------------------------------------------------------

Input orbitals are from        ... PbMACl3_mp2_md2_4.orca.gbw
Input Perturbation             ... PbMACl3_mp2_md2_4.orca.pin.tmp
Wavefunction output            ... PbMACl3_mp2_md2_4.orca.pout.tmp
Perturbation mode              ... Real perturbation
Solver                         ... DIIS
   MaxDIIS                     ... 20
   Levelshift                  ...    3.000e-01 Eh
Max. number of iterations      ... 128
Convergence tolerance          ... 1.000e-08
Integral handling              ... Direct
COSX GridX                     ... 1
Number of perturbations        ... 1
Number of operators            ... 1
Orbital ranges used for CP-SCF:
 Operator 0:  Orbitals   0... 45  to  46...258
DFT calculation                         ... on
Exchange functional (SCF)               ... B88
Exchange functional (CP-SCF)            ... B88
   X-Alpha parameter    XAlpha (SCF)    ...  0.666667
   X-Alpha parameter    XAlpha (CP-SCF) ...  0.666667
   Becke's b parameter  XBeta (SCF)     ...  0.004200
   Becke's b parameter  XBeta (CP-SCF)  ...  0.004200
Correlation functional (SCF)            ... LYP
Correlation functional (CP-SCF)         ... LYP
 LDA part of GGA corr.  LDAOpt (SCF)    ... VWN-3
 LDA part of GGA corr.  LDAOpt (CP-SCF) ... VWN-3
Hybrid DFT                              ... on
   Exchange mixing (SCF)                ...  0.530
   Exchange mixing (CP-SCF)             ...  0.530
   GGA exch. scaling(SCF)               ...  0.470
   GGA exch. scaling (CP-SCF)           ...  0.470
   GGA corr. scaling (SCF)              ...  0.730
   GGA corr. scaling (CP-SCF)           ...  0.730
The RIJCOSX approximation is active
Variables per vector in CP-SCF ... 9798
Number of vectors sought       ... 1
Calculating the xc-kernel      ... done

Solving the CP-SCF equations by a DIIS algorithm

-----------------
CP-SCF ITERATIONS
-----------------
  Iteration   0: MaxR=  0.089349815
  Iteration   1: MaxR=  0.039635854
  Iteration   2: MaxR=  0.010604981
  Iteration   3: MaxR=  0.005612068
  Iteration   4: MaxR=  0.003321860
  Iteration   5: MaxR=  0.001647197
  Iteration   6: MaxR=  0.000727036
  Iteration   7: MaxR=  0.000239189
  Iteration   8: MaxR=  0.000126032
  Iteration   9: MaxR=  0.000064023
  Iteration  10: MaxR=  0.000034134
  Iteration  11: MaxR=  0.000017626
  Iteration  12: MaxR=  0.000008568
  Iteration  13: MaxR=  0.000003938
  Iteration  14: MaxR=  0.000001445
  Iteration  15: MaxR=  0.000000642
  Iteration  16: MaxR=  0.000000327
  Iteration  17: MaxR=  0.000000183
  Iteration  18: MaxR=  0.000000092
  Iteration  19: MaxR=  0.000000040
  Iteration  20: MaxR=  0.000000017
  Iteration  21: MaxR=  0.000000007
                              *** THE CP-SCF HAS CONVERGED *** 
done
Finalizing the relaxed density                   ... done
Transforming P to the AO basis                   ... done
Storing the relaxed density                      ... done

------------------------------------
ENERGY WEIGHTED DENSITY FINALIZATION
------------------------------------

Gathering the parts of the W-matrix              ... done
Forming the Z-density                            ... done
Transforming Z to the AO basis                   ... done
Calculating G(Z)                                 ... done
Finalizing the W-matrix                          ... done
Transforming W to the AO basis and storing       ... done
Entering the RIJONX and RIJCOSX sections
Starting the three-index derivative integrals:
Operator 0  - Memory available             ...  1000 MB
Operator 0  - Memory needed per MO         ...   1.0 MB
Operator 0  - Number of orbitals per batch ... 46
Operator 0  - Number of batches            ... 1

OPERATOR  0   PASS   0:  MOs     0 ...   45

----------------------------------
MP2 DERIVATIVE INTEGRAL GENERATION
----------------------------------


Input Correlated Electron Density   ... PbMACl3_mp2_md2_4.orca.pmp2re
Input Energy Weighted Density       ... PbMACl3_mp2_md2_4.orca.wmp2.tmp
Input SCF Electron Density          ... PbMACl3_mp2_md2_4.orca.scfp.tmp

One-Electron Terms    ...
  ECP gradient                                           ... One-Electron Terms done

-----------------------------------------------------------
MP2 COSX Grid Generation
-----------------------------------------------------------

General Integration Accuracy     IntAcc      ...  4.340
Radial Grid Type                 RadialGrid  ... Gauss-Chebyshev
Angular Grid (max. acc.)         AngularGrid ... Lebedev-302
Angular grid pruning method      GridPruning ... 3 (G Style)
Weight generation scheme         WeightScheme... Becke
Basis function cutoff            BFCut       ...    1.0000e-11
Integration weight cutoff        WCut        ...    1.0000e-14
Grids for H and He will be reduced by one unit

# of grid points (after initial pruning)     ...  57718 (   0.0 sec)
# of grid points (after weights+screening)   ...  54921 (   0.1 sec)
nearest neighbour list constructed           ...    0.0 sec
Grid point re-assignment to atoms done       ...    0.0 sec
Grid point division into batches done        ...    0.2 sec
Reduced shell lists constructed in    1.5 sec

Total number of grid points                  ...    54921
Total number of batches                      ...      864
Average number of points per batch           ...       63
Average number of grid points per atom       ...     4577
Average number of shells per batch           ...    50.38 (49.88%)
Average number of basis functions per batch  ...   129.46 (49.99%)
Average number of large shells per batch     ...    37.33 (74.10%)
Average number of large basis fcns per batch ...    95.19 (73.52%)
Maximum spatial batch extension              ...  34.50, 35.78, 29.91 au
Average spatial batch extension              ...   3.27,  3.20,  3.22 au

Overlap Fitting                  UseSFitting ... on
Two electron COSX terms .... 
Integration Timings:
Total Time                  =    69.4 sec
Basis fcn evaluation        =     0.6 sec
Density evaluation          =     0.9 sec
Integral evaluation         =    66.5 sec
K(P) evaluation             =     0.6 sec
                          .... COSX two electron terms done
COSX two-electron contribution to the gradient
     0:    -0.014375    -0.036979    -0.016846
     1:     0.040863     0.120070     0.041995
     2:     0.098257    -0.074652     0.105293
     3:    -0.105696     0.100502     0.095087
     4:     0.101447     0.101922    -0.098340
     5:    -0.122312    -0.128275     0.101820
     6:     0.108220    -0.130105    -0.116844
     7:    -0.085111     0.027311    -0.090101
     8:     0.012163    -0.031148     0.011580
     9:     0.052424     0.015501    -0.071124
    10:    -0.018897     0.024852    -0.019995
    11:    -0.067061     0.010420     0.057046
Exchange-correlation gradient    ... done
Dispersion correction            ... 
Entering the calculation of the dispersion correction...

Checking the input atom types...

Done
done

                *********************************************
                * UNRELAXED MP2 DENSITY POPULATION ANALYSIS *
                *********************************************

------------------------------------------------------------------------------
                           ORCA POPULATION ANALYSIS
------------------------------------------------------------------------------
Input electron density              ... PbMACl3_mp2_md2_4.orca.pmp2ur
BaseName (.gbw .S,...)              ... PbMACl3_mp2_md2_4.orca

                    ********************************
                    * MULLIKEN POPULATION ANALYSIS *
                    ********************************

-----------------------
MULLIKEN ATOMIC CHARGES
-----------------------
   0 C :   -0.233900
   1 N :   -0.301544
   2 H :    0.135821
   3 H :    0.176331
   4 H :    0.176300
   5 H :    0.269448
   6 H :    0.272023
   7 H :    0.254979
   8 Pb:    0.906352
   9 Cl:   -0.450307
  10 Cl:   -0.750341
  11 Cl:   -0.455163
Sum of atomic charges:   -0.0000000

--------------------------------
MULLIKEN REDUCED ORBITAL CHARGES
--------------------------------
  0 C s       :     3.256135  s :     3.256135
      pz      :     0.981461  p :     2.895832
      px      :     1.001532
      py      :     0.912839
      dz2     :     0.007687  d :     0.074733
      dxz     :     0.019376
      dyz     :     0.019828
      dx2y2   :     0.008021
      dxy     :     0.019820
      f0      :     0.000513  f :     0.007201
      f+1     :     0.000665
      f-1     :     0.000847
      f+2     :     0.000928
      f-2     :     0.002814
      f+3     :     0.000696
      f-3     :     0.000737
  1 N s       :     3.428602  s :     3.428602
      pz      :     1.273877  p :     3.808705
      px      :     1.269746
      py      :     1.265082
      dz2     :     0.007897  d :     0.060942
      dxz     :     0.015207
      dyz     :     0.014413
      dx2y2   :     0.008675
      dxy     :     0.014751
      f0      :     0.000275  f :     0.003294
      f+1     :     0.000328
      f-1     :     0.000363
      f+2     :     0.000386
      f-2     :     0.001295
      f+3     :     0.000315
      f-3     :     0.000332
  2 H s       :     0.841878  s :     0.841878
      pz      :     0.008522  p :     0.022301
      px      :     0.008007
      py      :     0.005772
  3 H s       :     0.800388  s :     0.800388
      pz      :     0.007011  p :     0.023281
      px      :     0.007974
      py      :     0.008295
  4 H s       :     0.800411  s :     0.800411
      pz      :     0.007400  p :     0.023289
      px      :     0.007494
      py      :     0.008395
  5 H s       :     0.697027  s :     0.697027
      pz      :     0.009697  p :     0.033525
      px      :     0.012057
      py      :     0.011772
  6 H s       :     0.694214  s :     0.694214
      pz      :     0.011695  p :     0.033763
      px      :     0.010086
      py      :     0.011982
  7 H s       :     0.695868  s :     0.695868
      pz      :     0.017683  p :     0.049153
      px      :     0.016469
      py      :     0.015001
  8 Pbs       :     3.934114  s :     3.934114
      pz      :     2.330093  p :     6.932316
      px      :     2.321671
      py      :     2.280552
      dz2     :     2.037148  d :    10.154847
      dxz     :     2.056503
      dyz     :     2.021365
      dx2y2   :     2.021028
      dxy     :     2.018803
      f0      :     0.010472  f :     0.072370
      f+1     :     0.013475
      f-1     :     0.008313
      f+2     :     0.011594
      f-2     :     0.012519
      f+3     :     0.007940
      f-3     :     0.008059
  9 Cls       :     5.954392  s :     5.954392
      pz      :     3.763808  p :    11.436921
      px      :     3.790768
      py      :     3.882344
      dz2     :     0.012352  d :     0.055603
      dxz     :     0.014366
      dyz     :     0.010893
      dx2y2   :     0.009040
      dxy     :     0.008952
      f0      :     0.000492  f :     0.003391
      f+1     :     0.000626
      f-1     :     0.000468
      f+2     :     0.000506
      f-2     :     0.000504
      f+3     :     0.000395
      f-3     :     0.000399
 10 Cls       :     5.957358  s :     5.957358
      pz      :     3.942128  p :    11.744894
      px      :     3.945552
      py      :     3.857213
      dz2     :     0.008448  d :     0.045163
      dxz     :     0.008570
      dyz     :     0.009689
      dx2y2   :     0.008960
      dxy     :     0.009496
      f0      :     0.000420  f :     0.002926
      f+1     :     0.000381
      f-1     :     0.000394
      f+2     :     0.000417
      f-2     :     0.000472
      f+3     :     0.000448
      f-3     :     0.000392
 11 Cls       :     5.954292  s :     5.954292
      pz      :     3.778873  p :    11.442007
      px      :     3.778748
      py      :     3.884387
      dz2     :     0.010013  d :     0.055476
      dxz     :     0.014833
      dyz     :     0.008991
      dx2y2   :     0.011251
      dxy     :     0.010389
      f0      :     0.000455  f :     0.003388
      f+1     :     0.000560
      f-1     :     0.000391
      f+2     :     0.000582
      f-2     :     0.000497
      f+3     :     0.000452
      f-3     :     0.000453


                     *******************************
                     * LOEWDIN POPULATION ANALYSIS *
                     *******************************

----------------------
LOEWDIN ATOMIC CHARGES
----------------------
   0 C :   -0.278147
   1 N :    0.094963
   2 H :    0.115751
   3 H :    0.134863
   4 H :    0.134702
   5 H :    0.195741
   6 H :    0.194876
   7 H :    0.112096
   8 Pb:    0.369076
   9 Cl:   -0.187826
  10 Cl:   -0.694434
  11 Cl:   -0.191660

-------------------------------
LOEWDIN REDUCED ORBITAL CHARGES
-------------------------------
  0 C s       :     2.857176  s :     2.857176
      pz      :     1.033879  p :     3.078928
      px      :     1.046216
      py      :     0.998833
      dz2     :     0.027778  d :     0.303414
      dxz     :     0.080979
      dyz     :     0.081721
      dx2y2   :     0.032473
      dxy     :     0.080463
      f0      :     0.005464  f :     0.038629
      f+1     :     0.004003
      f-1     :     0.005787
      f+2     :     0.004391
      f-2     :     0.007824
      f+3     :     0.005207
      f-3     :     0.005954
  1 N s       :     3.006843  s :     3.006843
      pz      :     1.242962  p :     3.712067
      px      :     1.238774
      py      :     1.230331
      dz2     :     0.019760  d :     0.175214
      dxz     :     0.042892
      dyz     :     0.045058
      dx2y2   :     0.021267
      dxy     :     0.046236
      f0      :     0.001716  f :     0.010914
      f+1     :     0.001293
      f-1     :     0.001564
      f+2     :     0.001221
      f-2     :     0.001993
      f+3     :     0.001461
      f-3     :     0.001666
  2 H s       :     0.820318  s :     0.820318
      pz      :     0.023573  p :     0.063930
      px      :     0.022421
      py      :     0.017936
  3 H s       :     0.799879  s :     0.799879
      pz      :     0.019384  p :     0.065258
      px      :     0.023713
      py      :     0.022161
  4 H s       :     0.800038  s :     0.800038
      pz      :     0.022045  p :     0.065261
      px      :     0.020802
      py      :     0.022414
  5 H s       :     0.706409  s :     0.706409
      pz      :     0.031286  p :     0.097850
      px      :     0.033378
      py      :     0.033187
  6 H s       :     0.706008  s :     0.706008
      pz      :     0.032413  p :     0.099116
      px      :     0.032845
      py      :     0.033858
  7 H s       :     0.721462  s :     0.721462
      pz      :     0.060559  p :     0.166442
      px      :     0.055978
      py      :     0.049905
  8 Pbs       :     3.816787  s :     3.816787
      pz      :     2.440730  p :     7.198827
      px      :     2.424369
      py      :     2.333728
      dz2     :     2.095861  d :    10.481276
      dxz     :     2.205063
      dyz     :     2.059817
      dx2y2   :     2.068716
      dxy     :     2.051820
      f0      :     0.017707  f :     0.134033
      f+1     :     0.029782
      f-1     :     0.013299
      f+2     :     0.024472
      f-2     :     0.024471
      f+3     :     0.011804
      f-3     :     0.012499
  9 Cls       :     5.777454  s :     5.777454
      pz      :     3.740820  p :    11.337282
      px      :     3.756460
      py      :     3.840002
      dz2     :     0.015176  d :     0.068854
      dxz     :     0.021806
      dyz     :     0.013006
      dx2y2   :     0.009100
      dxy     :     0.009766
      f0      :     0.000475  f :     0.004236
      f+1     :     0.001095
      f-1     :     0.000594
      f+2     :     0.000581
      f-2     :     0.000684
      f+3     :     0.000389
      f-3     :     0.000419
 10 Cls       :     5.925501  s :     5.925501
      pz      :     3.929657  p :    11.718049
      px      :     3.934486
      py      :     3.853906
      dz2     :     0.008587  d :     0.047734
      dxz     :     0.008803
      dyz     :     0.010635
      dx2y2   :     0.009353
      dxy     :     0.010355
      f0      :     0.000461  f :     0.003150
      f+1     :     0.000383
      f-1     :     0.000397
      f+2     :     0.000447
      f-2     :     0.000556
      f+3     :     0.000512
      f-3     :     0.000395
 11 Cls       :     5.777299  s :     5.777299
      pz      :     3.746441  p :    11.341339
      px      :     3.753752
      py      :     3.841146
      dz2     :     0.009366  d :     0.068787
      dxz     :     0.023869
      dyz     :     0.009572
      dx2y2   :     0.014503
      dxy     :     0.011477
      f0      :     0.000577  f :     0.004235
      f+1     :     0.000642
      f-1     :     0.000395
      f+2     :     0.000945
      f-2     :     0.000623
      f+3     :     0.000520
      f-3     :     0.000532


                      *****************************
                      * MAYER POPULATION ANALYSIS *
                      *****************************

  NA   - Mulliken gross atomic population
  ZA   - Total nuclear charge
  QA   - Mulliken gross atomic charge
  VA   - Mayer's total valence
  BVA  - Mayer's bonded valence
  FA   - Mayer's free valence

  ATOM       NA         ZA         QA         VA         BVA        FA
  0 C      6.2339     6.0000    -0.2339     3.8505     3.7372     0.1133
  1 N      7.3015     7.0000    -0.3015     3.3578     3.2162     0.1417
  2 H      0.8642     1.0000     0.1358     0.9637     0.9444     0.0193
  3 H      0.8237     1.0000     0.1763     0.9805     0.9624     0.0181
  4 H      0.8237     1.0000     0.1763     0.9802     0.9621     0.0181
  5 H      0.7306     1.0000     0.2694     0.9395     0.9189     0.0206
  6 H      0.7280     1.0000     0.2720     0.9384     0.9181     0.0203
  7 H      0.7450     1.0000     0.2550     1.0920     1.0697     0.0223
  8 Pb    21.0936    22.0000     0.9064     2.1300     1.7524     0.3776
  9 Cl    17.4503    17.0000    -0.4503     1.1730     0.8999     0.2732
 10 Cl    17.7503    17.0000    -0.7503     0.6827     0.4335     0.2492
 11 Cl    17.4552    17.0000    -0.4552     1.1652     0.8925     0.2728

  Mayer bond orders larger than 0.1
B(  0-C ,  1-N ) :   0.8661 B(  0-C ,  2-H ) :   0.9486 B(  0-C ,  3-H ) :   0.9480 
B(  0-C ,  4-H ) :   0.9483 B(  1-N ,  5-H ) :   0.8793 B(  1-N ,  6-H ) :   0.8787 
B(  1-N ,  7-H ) :   0.6701 B(  7-H , 10-Cl) :   0.3981 B(  8-Pb,  9-Cl) :   0.8649 
B(  8-Pb, 11-Cl) :   0.8581 


                *******************************************
                * RELAXED MP2 DENSITY POPULATION ANALYSIS *
                *******************************************

------------------------------------------------------------------------------
                           ORCA POPULATION ANALYSIS
------------------------------------------------------------------------------
Input electron density              ... PbMACl3_mp2_md2_4.orca.pmp2re
BaseName (.gbw .S,...)              ... PbMACl3_mp2_md2_4.orca

                    ********************************
                    * MULLIKEN POPULATION ANALYSIS *
                    ********************************

-----------------------
MULLIKEN ATOMIC CHARGES
-----------------------
   0 C :   -0.251448
   1 N :   -0.297271
   2 H :    0.139250
   3 H :    0.178823
   4 H :    0.178764
   5 H :    0.267604
   6 H :    0.269942
   7 H :    0.246824
   8 Pb:    0.839329
   9 Cl:   -0.416858
  10 Cl:   -0.732902
  11 Cl:   -0.422057
Sum of atomic charges:   -0.0000000

--------------------------------
MULLIKEN REDUCED ORBITAL CHARGES
--------------------------------
  0 C s       :     3.258229  s :     3.258229
      pz      :     0.988344  p :     2.915704
      px      :     1.008077
      py      :     0.919283
      dz2     :     0.007837  d :     0.070482
      dxz     :     0.017726
      dyz     :     0.018370
      dx2y2   :     0.008179
      dxy     :     0.018371
      f0      :     0.000492  f :     0.007033
      f+1     :     0.000656
      f-1     :     0.000834
      f+2     :     0.000918
      f-2     :     0.002733
      f+3     :     0.000679
      f-3     :     0.000722
  1 N s       :     3.428486  s :     3.428486
      pz      :     1.273149  p :     3.806128
      px      :     1.269330
      py      :     1.263649
      dz2     :     0.008038  d :     0.059416
      dxz     :     0.014631
      dyz     :     0.013812
      dx2y2   :     0.008796
      dxy     :     0.014140
      f0      :     0.000271  f :     0.003241
      f+1     :     0.000328
      f-1     :     0.000363
      f+2     :     0.000386
      f-2     :     0.001250
      f+3     :     0.000310
      f-3     :     0.000333
  2 H s       :     0.838786  s :     0.838786
      pz      :     0.008345  p :     0.021963
      px      :     0.007862
      py      :     0.005756
  3 H s       :     0.798302  s :     0.798302
      pz      :     0.006908  p :     0.022875
      px      :     0.007834
      py      :     0.008133
  4 H s       :     0.798352  s :     0.798352
      pz      :     0.007291  p :     0.022884
      px      :     0.007365
      py      :     0.008228
  5 H s       :     0.699250  s :     0.699250
      pz      :     0.009638  p :     0.033146
      px      :     0.011846
      py      :     0.011663
  6 H s       :     0.696678  s :     0.696678
      pz      :     0.011501  p :     0.033380
      px      :     0.010015
      py      :     0.011864
  7 H s       :     0.704512  s :     0.704512
      pz      :     0.017455  p :     0.048664
      px      :     0.016274
      py      :     0.014936
  8 Pbs       :     3.940959  s :     3.940959
      pz      :     2.352414  p :     7.001040
      px      :     2.344151
      py      :     2.304475
      dz2     :     2.036589  d :    10.148344
      dxz     :     2.052350
      dyz     :     2.020788
      dx2y2   :     2.020261
      dxy     :     2.018357
      f0      :     0.010171  f :     0.070327
      f+1     :     0.012996
      f-1     :     0.008149
      f+2     :     0.011246
      f-2     :     0.012054
      f+3     :     0.007803
      f-3     :     0.007908
  9 Cls       :     5.955971  s :     5.955971
      pz      :     3.753789  p :    11.402268
      px      :     3.778049
      py      :     3.870430
      dz2     :     0.012277  d :     0.055223
      dxz     :     0.014127
      dyz     :     0.010916
      dx2y2   :     0.008958
      dxy     :     0.008945
      f0      :     0.000495  f :     0.003396
      f+1     :     0.000624
      f-1     :     0.000470
      f+2     :     0.000506
      f-2     :     0.000505
      f+3     :     0.000396
      f-3     :     0.000400
 10 Cls       :     5.957903  s :     5.957903
      pz      :     3.937991  p :    11.726850
      px      :     3.941693
      py      :     3.847166
      dz2     :     0.008436  d :     0.045208
      dxz     :     0.008586
      dyz     :     0.009720
      dx2y2   :     0.008939
      dxy     :     0.009526
      f0      :     0.000423  f :     0.002942
      f+1     :     0.000382
      f-1     :     0.000395
      f+2     :     0.000420
      f-2     :     0.000476
      f+3     :     0.000452
      f-3     :     0.000393
 11 Cls       :     5.955838  s :     5.955838
      pz      :     3.766684  p :    11.407717
      px      :     3.768678
      py      :     3.872355
      dz2     :     0.009928  d :     0.055110
      dxz     :     0.014624
      dyz     :     0.008986
      dx2y2   :     0.011183
      dxy     :     0.010390
      f0      :     0.000455  f :     0.003393
      f+1     :     0.000561
      f-1     :     0.000392
      f+2     :     0.000580
      f-2     :     0.000499
      f+3     :     0.000452
      f-3     :     0.000454


                     *******************************
                     * LOEWDIN POPULATION ANALYSIS *
                     *******************************

----------------------
LOEWDIN ATOMIC CHARGES
----------------------
   0 C :   -0.288489
   1 N :    0.091303
   2 H :    0.117677
   3 H :    0.136361
   4 H :    0.136195
   5 H :    0.195904
   6 H :    0.194904
   7 H :    0.108919
   8 Pb:    0.317263
   9 Cl:   -0.162403
  10 Cl:   -0.681073
  11 Cl:   -0.166559

-------------------------------
LOEWDIN REDUCED ORBITAL CHARGES
-------------------------------
  0 C s       :     2.858715  s :     2.858715
      pz      :     1.038512  p :     3.092578
      px      :     1.050681
      py      :     1.003386
      dz2     :     0.027941  d :     0.298828
      dxz     :     0.079446
      dyz     :     0.080010
      dx2y2   :     0.032613
      dxy     :     0.078817
      f0      :     0.005434  f :     0.038369
      f+1     :     0.003983
      f-1     :     0.005777
      f+2     :     0.004355
      f-2     :     0.007709
      f+3     :     0.005160
      f-3     :     0.005951
  1 N s       :     3.008994  s :     3.008994
      pz      :     1.243758  p :     3.713795
      px      :     1.239868
      py      :     1.230169
      dz2     :     0.019998  d :     0.174924
      dxz     :     0.042692
      dyz     :     0.044811
      dx2y2   :     0.021489
      dxy     :     0.045934
      f0      :     0.001730  f :     0.010985
      f+1     :     0.001300
      f-1     :     0.001574
      f+2     :     0.001223
      f-2     :     0.002012
      f+3     :     0.001468
      f-3     :     0.001679
  2 H s       :     0.818217  s :     0.818217
      pz      :     0.023576  p :     0.064106
      px      :     0.022445
      py      :     0.018085
  3 H s       :     0.798361  s :     0.798361
      pz      :     0.019406  p :     0.065278
      px      :     0.023729
      py      :     0.022142
  4 H s       :     0.798527  s :     0.798527
      pz      :     0.022088  p :     0.065278
      px      :     0.020801
      py      :     0.022389
  5 H s       :     0.706338  s :     0.706338
      pz      :     0.031327  p :     0.097758
      px      :     0.033180
      py      :     0.033252
  6 H s       :     0.706109  s :     0.706109
      pz      :     0.032218  p :     0.098986
      px      :     0.032868
      py      :     0.033900
  7 H s       :     0.724614  s :     0.724614
      pz      :     0.060566  p :     0.166467
      px      :     0.055992
      py      :     0.049910
  8 Pbs       :     3.823348  s :     3.823348
      pz      :     2.458506  p :     7.256204
      px      :     2.442581
      py      :     2.355117
      dz2     :     2.094691  d :    10.472610
      dxz     :     2.200354
      dyz     :     2.058923
      dx2y2   :     2.067589
      dxy     :     2.051051
      f0      :     0.017184  f :     0.130576
      f+1     :     0.028866
      f-1     :     0.013080
      f+2     :     0.023801
      f-2     :     0.023788
      f+3     :     0.011575
      f-3     :     0.012283
  9 Cls       :     5.780840  s :     5.780840
      pz      :     3.732978  p :    11.307893
      px      :     3.745429
      py      :     3.829485
      dz2     :     0.015315  d :     0.069382
      dxz     :     0.021997
      dyz     :     0.013153
      dx2y2   :     0.009091
      dxy     :     0.009827
      f0      :     0.000482  f :     0.004288
      f+1     :     0.001113
      f-1     :     0.000599
      f+2     :     0.000589
      f-2     :     0.000693
      f+3     :     0.000390
      f-3     :     0.000421
 10 Cls       :     5.926605  s :     5.926605
      pz      :     3.926405  p :    11.703398
      px      :     3.931483
      py      :     3.845510
      dz2     :     0.008586  d :     0.047901
      dxz     :     0.008828
      dyz     :     0.010707
      dx2y2   :     0.009359
      dxy     :     0.010421
      f0      :     0.000464  f :     0.003168
      f+1     :     0.000383
      f-1     :     0.000398
      f+2     :     0.000450
      f-2     :     0.000561
      f+3     :     0.000517
      f-3     :     0.000395
 11 Cls       :     5.780650  s :     5.780650
      pz      :     3.736006  p :    11.312304
      px      :     3.745804
      py      :     3.830494
      dz2     :     0.009374  d :     0.069318
      dxz     :     0.024121
      dyz     :     0.009630
      dx2y2   :     0.014621
      dxy     :     0.011573
      f0      :     0.000582  f :     0.004287
      f+1     :     0.000655
      f-1     :     0.000397
      f+2     :     0.000961
      f-2     :     0.000630
      f+3     :     0.000526
      f-3     :     0.000536


                      *****************************
                      * MAYER POPULATION ANALYSIS *
                      *****************************

  NA   - Mulliken gross atomic population
  ZA   - Total nuclear charge
  QA   - Mulliken gross atomic charge
  VA   - Mayer's total valence
  BVA  - Mayer's bonded valence
  FA   - Mayer's free valence

  ATOM       NA         ZA         QA         VA         BVA        FA
  0 C      6.2514     6.0000    -0.2514     3.8509     3.7378     0.1131
  1 N      7.2973     7.0000    -0.2973     3.3624     3.2212     0.1412
  2 H      0.8607     1.0000     0.1393     0.9635     0.9443     0.0192
  3 H      0.8212     1.0000     0.1788     0.9812     0.9632     0.0180
  4 H      0.8212     1.0000     0.1788     0.9808     0.9629     0.0180
  5 H      0.7324     1.0000     0.2676     0.9429     0.9226     0.0204
  6 H      0.7301     1.0000     0.2699     0.9419     0.9218     0.0201
  7 H      0.7532     1.0000     0.2468     1.0978     1.0757     0.0221
  8 Pb    21.1607    22.0000     0.8393     2.2286     1.8585     0.3701
  9 Cl    17.4169    17.0000    -0.4169     1.2300     0.9600     0.2699
 10 Cl    17.7329    17.0000    -0.7329     0.7124     0.4645     0.2478
 11 Cl    17.4221    17.0000    -0.4221     1.2216     0.9521     0.2696

  Mayer bond orders larger than 0.1
B(  0-C ,  1-N ) :   0.8750 B(  0-C ,  2-H ) :   0.9452 B(  0-C ,  3-H ) :   0.9452 
B(  0-C ,  4-H ) :   0.9455 B(  1-N ,  5-H ) :   0.8770 B(  1-N ,  6-H ) :   0.8767 
B(  1-N ,  7-H ) :   0.6650 B(  7-H , 10-Cl) :   0.4088 B(  8-Pb,  9-Cl) :   0.9151 
B(  8-Pb, 11-Cl) :   0.9078 


-------
TIMINGS
-------

Total time                :  472.384 sec
Integral trafo            :    2.344 sec (  0.5%)
I/O of integrals          :    0.111 sec (  0.0%)
K(i,j) Operators          :    6.323 sec (  1.3%)
T(i,j) pair energies      :    1.156 sec (  0.2%)
V-calculation             :    0.013 sec (  0.0%)
V**(-1/2)                 :    0.037 sec (  0.0%)
Gamma(ia|P)               :    5.934 sec (  1.3%)
Gamma-Trafo               :    0.847 sec (  0.2%)
D(virtual)                :    2.487 sec (  0.5%)
D(internal)               :    4.245 sec (  0.9%)
W(virtual)                :    5.033 sec (  1.1%)
W(internal)               :   14.065 sec (  3.0%)
L(virtual)                :    4.707 sec (  1.0%)
L(internal)               :    0.233 sec (  0.0%)
G(D)                      :   10.990 sec (  2.3%)
G(Z)                      :   11.479 sec (  2.4%)
Z-Vector Solution         :  315.260 sec ( 66.7%)
Z-Vector Solution         :  315.260 sec ( 66.7%)
3-Index Derivative 
+ Separable RIJ part      :    3.266 sec (  0.7%)
2-Index Derivative 
+ Separable RIJ part      :    0.025 sec (  0.0%)
Separable Gradient (COSX) :   81.414 sec ( 17.2%)


---------------------------------------
MP2 TOTAL ENERGY:    -1669.519860187 Eh
---------------------------------------

The final MP2 gradient
  0:  -0.00329799  -0.00112982  -0.00367681
  1:  -0.00365319   0.05360618  -0.00778320
  2:   0.00226006  -0.00139602   0.00259998
  3:  -0.00122546   0.00296740   0.00633339
  4:   0.00638146   0.00321603  -0.00062918
  5:  -0.01319337  -0.01732622   0.00241213
  6:   0.00128901  -0.01591148  -0.01144063
  7:   0.01671093  -0.03773456   0.01786809
  8:  -0.00176228   0.01086718   0.00007311
  9:   0.00716426  -0.00495117  -0.00698814
 10:  -0.00561029   0.01274391  -0.00632639
 11:  -0.00508749  -0.00558890   0.00707179

-----------------------------------
NORM OF THE MP2 GRADIENT:  0.081019
-----------------------------------

Entering the calculation of the dispersion correction...

Checking the input atom types...

Done


-------------------------------------------------------------------------------
                          DFT DISPERSION CORRECTION                            
                                                                               
                                DFTD3 V2.1  Rev 6                               
                          USING Becke-Johnson damping                          
-------------------------------------------------------------------------------
The B2PLYP functional is recognized
Active option DFTDOPT                   ...         4   

molecular C6(AA) [au] = 4942.247453 


            DFT-D V3
 parameters
 s6 scaling factor         :     0.6400 
 a1 scaling factor         :     0.3065 
 s8 scaling factor         :     0.9147 
 a2 scaling factor         :     5.0570 
 ad hoc parameters k1-k3   :    16.0000     1.3333    -4.0000 

 Edisp/kcal,au: -6.101633310044  -0.009723570578 
 E6   /kcal   :  -2.912671314 
 E8   /kcal   :  -3.188961996 
 % E8         :  52.264071501 

-------------------------   ----------------
Dispersion correction           -0.009723571
-------------------------   ----------------


-------------------------   --------------------
FINAL SINGLE POINT ENERGY     -1669.529583757204
-------------------------   --------------------


                            ***************************************
                            *     ORCA property calculations      *
                            ***************************************


  WARNING: The energy has been calculated at the MP2 level but the densities
           used in the property calculations are still SCF densities
           MP2 response densities have not been calculated 
           use %mp2 Density relaxed end
           or  %mp2 Density unrelaxed end

                                    ---------------------
                                    Active property flags
                                    ---------------------
   (+) Dipole Moment


------------------------------------------------------------------------------
                       ORCA ELECTRIC PROPERTIES CALCULATION
------------------------------------------------------------------------------

Dipole Moment Calculation                       ... on
Quadrupole Moment Calculation                   ... off
Polarizability Calculation                      ... off
GBWName                                         ... PbMACl3_mp2_md2_4.orca.gbw
Electron density file                           ... PbMACl3_mp2_md2_4.orca.scfp.tmp

-------------
DIPOLE MOMENT
-------------
                                X             Y             Z
Electronic contribution:    -28.82108    -167.46757     -25.13887
Nuclear contribution   :     31.28943     164.17794      27.65709
                        -----------------------------------------
Total Dipole Moment    :      2.46835      -3.28963       2.51822
                        -----------------------------------------
Magnitude (a.u.)       :      4.82244
Magnitude (Debye)      :     12.25766


                         *** MP2 UNRELAXED DENSITY ***

------------------------------------------------------------------------------
                       ORCA ELECTRIC PROPERTIES CALCULATION
------------------------------------------------------------------------------

Dipole Moment Calculation                       ... on
Quadrupole Moment Calculation                   ... off
Polarizability Calculation                      ... off
GBWName                                         ... PbMACl3_mp2_md2_4.orca.gbw
Electron density file                           ... PbMACl3_mp2_md2_4.orca.pmp2ur

-------------
DIPOLE MOMENT
-------------
                                X             Y             Z
Electronic contribution:    -28.83554    -167.44322     -25.15362
Nuclear contribution   :     31.28943     164.17794      27.65709
                        -----------------------------------------
Total Dipole Moment    :      2.45389      -3.26528       2.50348
                        -----------------------------------------
Magnitude (a.u.)       :      4.79073
Magnitude (Debye)      :     12.17706


                           *** MP2 RELAXED DENSITY ***

------------------------------------------------------------------------------
                       ORCA ELECTRIC PROPERTIES CALCULATION
------------------------------------------------------------------------------

Dipole Moment Calculation                       ... on
Quadrupole Moment Calculation                   ... off
Polarizability Calculation                      ... off
GBWName                                         ... PbMACl3_mp2_md2_4.orca.gbw
Electron density file                           ... PbMACl3_mp2_md2_4.orca.pmp2re

-------------
DIPOLE MOMENT
-------------
                                X             Y             Z
Electronic contribution:    -28.87972    -167.37935     -25.19940
Nuclear contribution   :     31.28943     164.17794      27.65709
                        -----------------------------------------
Total Dipole Moment    :      2.40970      -3.20142       2.45770
                        -----------------------------------------
Magnitude (a.u.)       :      4.70064
Magnitude (Debye)      :     11.94808


Timings for individual modules:

Sum of individual times         ...      795.299 sec (=  13.255 min)
GTO integral calculation        ...        3.246 sec (=   0.054 min)   0.4 %
SCF iterations                  ...      318.445 sec (=   5.307 min)  40.0 %
MP2 module                      ...      473.608 sec (=   7.893 min)  59.6 %
                             ****ORCA TERMINATED NORMALLY****
TOTAL RUN TIME: 0 days 0 hours 13 minutes 16 seconds 679 msec
