
                                 *****************
                                 * O   R   C   A *
                                 *****************

           --- An Ab Initio, DFT and Semiempirical electronic structure package ---

                  #######################################################
                  #                        -***-                        #
                  #  Department of molecular theory and spectroscopy    #
                  #              Directorship: Frank Neese              #
                  # Max Planck Institute for Chemical Energy Conversion #
                  #                  D-45470 Muelheim/Ruhr              #
                  #                       Germany                       #
                  #                                                     #
                  #                  All rights reserved                #
                  #                        -***-                        #
                  #######################################################


                         Program Version 3.0.3 - RELEASE   -


 With contributions from (in alphabetic order):
   Ute Becker             : Parallelization
   Dmytro Bykov           : SCF Hessian
   Dmitry Ganyushin       : Spin-Orbit,Spin-Spin,Magnetic field MRCI
   Andreas Hansen         : Spin unrestricted coupled pair/coupled cluster methods
   Dimitrios Liakos       : Extrapolation schemes; parallel MDCI
   Robert Izsak           : Overlap fitted RIJCOSX, COSX-SCS-MP3
   Christian Kollmar      : KDIIS, OOCD, Brueckner-CCSD(T), CCSD density
   Simone Kossmann        : Meta GGA functionals, TD-DFT gradient, OOMP2, MP2 Hessian
   Taras Petrenko         : DFT Hessian,TD-DFT gradient, ASA and ECA modules, normal mode analysis, Resonance Raman, ABS, FL, XAS/XES, NRVS
   Christoph Reimann      : Effective Core Potentials
   Michael Roemelt        : Restricted open shell CIS
   Christoph Riplinger    : Improved optimizer, TS searches, QM/MM, DLPNO-CCSD
   Barbara Sandhoefer     : DKH picture change effects
   Igor Schapiro          : Molecular dynamics
   Kantharuban Sivalingam : CASSCF convergence, NEVPT2
   Boris Wezisla          : Elementary symmetry handling
   Frank Wennmohs         : Technical directorship


 We gratefully acknowledge several colleagues who have allowed us to
 interface, adapt or use parts of their codes:
   Stefan Grimme, W. Hujo, H. Kruse, T. Risthaus : VdW corrections, initial TS optimization,
                                                   DFT functionals, gCP
   Ed Valeev                                     : LibInt (2-el integral package), F12 methods
   Garnet Chan, S. Sharma, R. Olivares           : DMRG
   Ulf Ekstrom                                   : XCFun DFT Library
   Mihaly Kallay                                 : mrcc  (arbitrary order and MRCC methods)
   Andreas Klamt, Michael Diedenhofen            : otool_cosmo (COSMO solvation model)
   Frank Weinhold                                : gennbo (NPA and NBO analysis)
   Christopher J. Cramer and Donald G. Truhlar   : smd solvation model


 Your calculation uses the libint2 library for the computation of 2-el integrals
 For citations please refer to: http://libint.valeyev.net

 This ORCA versions uses:
   CBLAS   interface :  Fast vector & matrix operations
   LAPACKE interface :  Fast linear algebra routines
   SCALAPACK package :  Parallel linear algebra routines


Your calculation utilizes the basis: Ahlrichs-TZV
Cite in your paper:
H - Kr: A. Schaefer, H. Horn and R. Ahlrichs, J. Chem. Phys. 97, 2571 (1992).

The def2-TZV basis will be loaded
Cite in your paper:
 	F. Weigend, R. Ahlrichs, Phys. Chem. Chem. Phys. 2005, 7, 3297.

Your calculation utilizes the atom-pairwise dispersion correction
with the Becke-Johnson damping scheme (D3BJ)
Cite in your paper:
S.Grimme, S.Ehrlich, L.Goerigk, J Comput Chem, (2011), 32, 1456–1465 
S.Grimme, J.Antony, S.Ehrlich and H.Krieg, J.Chem.Phys., 132, (2010), 154104 
   

================================================================================
                                        WARNINGS
                       Please study these warnings very carefully!
================================================================================

WARNING: The RI method has been chosen with no auxiliary basis (AUX or GTOAUX in BASIS block)
        Standard TZV/J expansion basis used (GTOAUX=TZV_J)

Now building the actual basis set
cite the ECPs for Pb [SD(60,MDF)] as follows:
  B. Metz, H. Stoll, M. Dolg, J. Chem. Phys. 113, 2563 (2000).

ECP parameters for Pb [SD(60,MDF)] have been obtained from:
  pseudopotential library of the Stuttgart/Cologne group
  http://www.theochem.uni-stuttgart.de/pseudopotentials/

cite the ECP basis sets for Pb [DEF2-TZVP] as follows:
  F. Weigend, R. Ahlrichs; Phys. Chem. Chem. Phys. 7, 3297(2005).

ECP basis sets for Pb [DEF2-TZVP] have been obtained from:
  Turbomole basis set library
  ftp://ftp.chemie.uni-karlsruhe.de/pub/basen/



INFO   : the flag for use of LIBINT has been found!

================================================================================
                                       INPUT FILE
================================================================================
NAME = PbMACl3_mp2_md_20.orca
|  1> ! RIJCOSX RI-B2PLYP D3BJ def2-TZVP ECP{def2-TZVP} TIGHTSCF Grid5 FinalGrid6 SlowConv MORead
|  2> %method
|  3>  RunTyp Gradient
|  4>  end
|  5> %maxcore 1000
|  6> %moinp "previous.gbw"
|  7> *xyz 0 1
|  8> C -1.385110 -0.752771 0.175738 
|  9> N -1.463220 -0.108927 -1.188010 
| 10> H -0.876222 -0.618127 -1.689150 
| 11> H -1.088550 0.840649 -1.082030 
| 12> H -2.426840 0.034223 -1.638530 
| 13> H -0.317637 -0.752681 0.317252 
| 14> H -1.769740 -1.771640 0.185047 
| 15> H -1.908030 -0.212500 0.971785 
| 16> Pb -3.037870 -2.643230 -2.432890 
| 17> Cl -0.779700 -3.475570 -1.930650 
| 18> Cl -2.989410 -0.472532 -3.612720 
| 19> Cl -4.500540 -2.619200 -0.414598 
| 20> *
| 21> 
| 22>                          ****END OF INPUT****
================================================================================

                     *******************************
                     * Energy+Gradient Calculation *
                     *******************************

---------------------------------
CARTESIAN COORDINATES (ANGSTROEM)
---------------------------------
  C     -1.385110   -0.752771    0.175738
  N     -1.463220   -0.108927   -1.188010
  H     -0.876222   -0.618127   -1.689150
  H     -1.088550    0.840649   -1.082030
  H     -2.426840    0.034223   -1.638530
  H     -0.317637   -0.752681    0.317252
  H     -1.769740   -1.771640    0.185047
  H     -1.908030   -0.212500    0.971785
  Pb    -3.037870   -2.643230   -2.432890
  Cl    -0.779700   -3.475570   -1.930650
  Cl    -2.989410   -0.472532   -3.612720
  Cl    -4.500540   -2.619200   -0.414598

----------------------------
CARTESIAN COORDINATES (A.U.)
----------------------------
  NO LB      ZA    FRAG    MASS        X           Y           Z
   0 C     6.0000    0    12.011         -2.617478565355665         -1.422531031558034          0.332096691323053
   1 N     7.0000    0    14.007         -2.765085073676254         -0.205842198589640         -2.245013544359786
   2 H     1.0000    0     1.008         -1.655819612516747         -1.168090745982342         -3.192030899113082
   3 H     1.0000    0     1.008         -2.057061383079978          1.588596384754766         -2.044740368686812
   4 H     1.0000    0     1.008         -4.586062970845450          0.064672097481187         -3.096372962213989
   5 H     1.0000    0     1.008         -0.600246940000345         -1.422360956205982          0.599519395438785
   6 H     1.0000    0     1.008         -3.344323928245796         -3.347914407900246          0.349688151903726
   7 H     1.0000    0     1.008         -3.605654155305765         -0.401566803458266          1.836407511052664
   8 Pb   22.0000*   0   207.200  -5.740742330455353  -4.994980808964670  -4.597495813955674
   9 Cl   17.0000    0    35.453         -1.473419466618400         -6.567875459272685         -3.648399760455065
  10 Cl   17.0000    0    35.453         -5.649166202005529         -0.892956069514077         -6.827051398539984
  11 Cl   17.0000    0    35.453         -8.504788054757951         -4.949570689966543         -0.783476675671483
* core charge reduced due to ECP

--------------------------------
INTERNAL COORDINATES (ANGSTROEM)
--------------------------------
 C      0   0   0   0.000000     0.000     0.000
 N      1   0   0   1.510114     0.000     0.000
 H      2   1   0   0.924658   102.816     0.000
 H      2   1   3   1.026306   106.400   244.930
 H      2   1   3   1.073324   118.840   127.747
 H      1   2   3   1.076812    99.783    51.686
 H      1   2   3   1.089092   112.850   294.490
 H      1   2   3   1.095002   114.927   171.879
 Pb     5   2   1   2.858867   100.580   285.208
 Cl     9   5   2   2.458529    93.669   350.410
 Cl     5   2   1   2.114406   126.785   228.385
 Cl     9   5   2   2.492686    83.766   102.300

---------------------------
INTERNAL COORDINATES (A.U.)
---------------------------
 C      0   0   0   0.000000     0.000     0.000
 N      1   0   0   2.853702     0.000     0.000
 H      2   1   0   1.747351   102.816     0.000
 H      2   1   3   1.939437   106.400   244.930
 H      2   1   3   2.028288   118.840   127.747
 H      1   2   3   2.034880    99.783    51.686
 H      1   2   3   2.058085   112.850   294.490
 H      1   2   3   2.069253   114.927   171.879
 Pb     5   2   1   5.402476   100.580   285.208
 Cl     9   5   2   4.645947    93.669   350.410
 Cl     5   2   1   3.995648   126.785   228.385
 Cl     9   5   2   4.710494    83.766   102.300

---------------------
BASIS SET INFORMATION
---------------------
There are 5 groups of distinct atoms

 Group   1 Type C   : 11s6p2d1f contracted to 5s3p2d1f pattern {62111/411/11/1}
 Group   2 Type N   : 11s6p2d1f contracted to 5s3p2d1f pattern {62111/411/11/1}
 Group   3 Type H   : 5s1p contracted to 3s1p pattern {311/1}
 Group   4 Type Pb  : 10s9p8d2f contracted to 6s5p3d2f pattern {421111/33111/611/11}
 Group   5 Type Cl  : 14s9p3d1f contracted to 5s5p2d1f pattern {73211/51111/21/1}

Atom   0C    basis set group =>   1
Atom   1N    basis set group =>   2
Atom   2H    basis set group =>   3
Atom   3H    basis set group =>   3
Atom   4H    basis set group =>   3
Atom   5H    basis set group =>   3
Atom   6H    basis set group =>   3
Atom   7H    basis set group =>   3
Atom   8Pb   basis set group =>   4
Atom   9Cl   basis set group =>   5
Atom  10Cl   basis set group =>   5
Atom  11Cl   basis set group =>   5
-------------------------------
AUXILIARY BASIS SET INFORMATION
-------------------------------
There are 5 groups of distinct atoms

 Group   1 Type C   : 12s5p4d2f1g contracted to 6s4p3d1f1g pattern {711111/2111/211/2/1}
 Group   2 Type N   : 12s5p4d2f1g contracted to 6s4p3d1f1g pattern {711111/2111/211/2/1}
 Group   3 Type H   : 5s2p1d contracted to 3s1p1d pattern {311/2/1}
 Group   4 Type Pb  : 31s12p8d6f3g contracted to 31s12p8d6f3g pattern {1111111111111111111111111111111/111111111111/11111111/111111/111}
 Group   5 Type Cl  : 14s5p5d2f1g contracted to 8s4p3d1f1g pattern {71111111/2111/311/2/1}

Atom   0C    basis set group =>   1
Atom   1N    basis set group =>   2
Atom   2H    basis set group =>   3
Atom   3H    basis set group =>   3
Atom   4H    basis set group =>   3
Atom   5H    basis set group =>   3
Atom   6H    basis set group =>   3
Atom   7H    basis set group =>   3
Atom   8Pb   basis set group =>   4
Atom   9Cl   basis set group =>   5
Atom  10Cl   basis set group =>   5
Atom  11Cl   basis set group =>   5

-------------------------
ECP PARAMETER INFORMATION
-------------------------

 Group 1, Type Pb ECP SD(60,MDF) (replacing 60 core electrons, lmax=5)

Atom   8Pb   ECP group =>   1


------------------------------------------------------------------------------
                           ORCA GTO INTEGRAL CALCULATION
                           -- RI-GTO INTEGRALS CHOSEN --
------------------------------------------------------------------------------

                         BASIS SET STATISTICS AND STARTUP INFO

Gaussian basis set:
 # of primitive gaussian shells          ...  186
 # of primitive gaussian functions       ...  420
 # of contracted shells                  ...  101
 # of contracted basis functions         ...  259
 Highest angular momentum                ...    3
 Maximum contraction depth               ...    7
Auxiliary gaussian basis set:
 # of primitive gaussian shells          ...  237
 # of primitive gaussian functions       ...  643
 # of contracted shells                  ...  171
 # of contracted aux-basis functions     ...  493
 Highest angular momentum                ...    4
 Maximum contraction depth               ...    7
Ratio of auxiliary to basis functions    ...  1.90
Integral package used                  ... LIBINT
 One Electron integrals                  
   ECP integrals                         ... done
 Ordering auxiliary basis shells         ... done
 Integral threshhold             Thresh  ...  2.500e-11
 Primitive cut-off               TCut    ...  2.500e-12
 Pre-screening matrix                    ... done
 Shell pair data                         ... 
 Ordering of the shell pairs             ... done (   0.001 sec) 4492 of 5151 pairs
 Determination of significant pairs      ... done (   0.000 sec)
 Creation of shell pair data             ... done (   0.002 sec)
 Storage of shell pair data              ... done (   0.001 sec)
 Shell pair data done in (   0.003 sec)
 Computing two index integrals           ... done
 Cholesky decomposition of the V-matrix  ... done


Timings:
 Total evaluation time                   ...   0.663 sec (  0.011 min)
 One electron matrix time                ...   0.350 sec (  0.006 min) = 52.8%
 Schwartz matrix evaluation time         ...   0.210 sec (  0.004 min) = 31.7%
 Two index repulsion integral time       ...   0.008 sec (  0.000 min) =  1.2%
 Cholesky decomposition of V             ...   0.064 sec (  0.001 min) =  9.7%
 Three index repulsion integral time     ...   0.000 sec (  0.000 min) =  0.0%

-------------------------------------------------------------------------------
                                 ORCA SCF
-------------------------------------------------------------------------------

------------
SCF SETTINGS
------------
Hamiltonian:
 Density Functional     Method          .... DFT(GTOs)
 Exchange Functional    Exchange        .... B88
   X-Alpha parameter    XAlpha          ....  0.666667
   Becke's b parameter  XBeta           ....  0.004200
 Correlation Functional Correlation     .... LYP
 LDA part of GGA corr.  LDAOpt          .... VWN-3
 Gradients option       PostSCFGGA      .... off
 Hybrid DFT is turned on
   Fraction HF Exchange ScalHFX         ....  0.530000
   Scaling of DF-GGA-X  ScalDFX         ....  0.470000
   Scaling of DF-GGA-C  ScalDFC         ....  0.730000
   Scaling of DF-LDA-C  ScalLDAC        ....  0.730000
   Perturbative correction              ....  0.270000
 RI-approximation to the Coulomb term is turned on
   Number of auxiliary basis functions  .... 493
   RIJ-COSX (HFX calculated with COS-X)).... on


General Settings:
 Integral files         IntName         .... PbMACl3_mp2_md_20.orca
 Hartree-Fock type      HFTyp           .... RHF
 Total Charge           Charge          ....    0
 Multiplicity           Mult            ....    1
 Number of Electrons    NEL             ....   92
 Basis Dimension        Dim             ....  259
 Nuclear Repulsion      ENuc            ....    607.5438703608 Eh

Convergence Acceleration:
 DIIS                   CNVDIIS         .... on
   Start iteration      DIISMaxIt       ....     0
   Startup error        DIISStart       ....  0.200000
   # of expansion vecs  DIISMaxEq       ....     5
   Bias factor          DIISBfac        ....   1.050
   Max. coefficient     DIISMaxC        ....  10.000
 Newton-Raphson         CNVNR           .... off
 SOSCF                  CNVSOSCF        .... on
   Start iteration      SOSCFMaxIt      ....   150
   Startup grad/error   SOSCFStart      ....  0.001000
 Level Shifting         CNVShift        .... on
   Level shift para.    LevelShift      ....    0.2500
   Turn off err/grad.   ShiftErr        ....    0.0000
 Zerner damping         CNVZerner       .... off
 Static damping         CNVDamp         .... on
   Fraction old density DampFac         ....    0.8500
   Max. Damping (<1)    DampMax         ....    0.9800
   Min. Damping (>=0)   DampMin         ....    0.0000
   Turn off err/grad.   DampErr         ....    0.0300
 Fernandez-Rico         CNVRico         .... off

SCF Procedure:
 Maximum # iterations   MaxIter         ....   125
 SCF integral mode      SCFMode         .... Direct
   Integral package                     .... LIBINT
 Reset frequeny         DirectResetFreq ....    20
 Integral Threshold     Thresh          ....  2.500e-11 Eh
 Primitive CutOff       TCut            ....  2.500e-12 Eh

Convergence Tolerance:
 Convergence Check Mode ConvCheckMode   .... Total+1el-Energy
 Energy Change          TolE            ....  1.000e-08 Eh
 1-El. energy change                    ....  1.000e-05 Eh
 Orbital Gradient       TolG            ....  1.000e-05
 Orbital Rotation angle TolX            ....  1.000e-05
 DIIS Error             TolErr          ....  5.000e-07


Diagonalization of the overlap matrix:
Smallest eigenvalue                        ... 9.994e-04
Time for diagonalization                   ...    0.142 sec
Threshold for overlap eigenvalues          ... 1.000e-08
Number of eigenvalues below threshold      ... 0
Time for construction of square roots      ...    0.005 sec
Total time needed                          ...    0.148 sec

---------------------
INITIAL GUESS: MOREAD
---------------------
Guess MOs are being read from file: previous.gbw
Input geometry compatible with but different from current geometry
Input basis set matches current basis set (good)
MOs were renormalized
MOs were reorthogonalized (Schmidt)
                      ------------------
                      INITIAL GUESS DONE (   0.1 sec)
                      ------------------
-------------------
DFT GRID GENERATION
-------------------

General Integration Accuracy     IntAcc      ...  5.010
Radial Grid Type                 RadialGrid  ... Gauss-Chebyshev
Angular Grid (max. acc.)         AngularGrid ... Lebedev-434
Angular grid pruning method      GridPruning ... 3 (G Style)
Weight generation scheme         WeightScheme... Becke
Basis function cutoff            BFCut       ...    1.0000e-11
Integration weight cutoff        WCut        ...    1.0000e-14
Grids for H and He will be reduced by one unit

# of grid points (after initial pruning)     ... 115882 (   0.0 sec)
# of grid points (after weights+screening)   ... 108273 (   0.2 sec)
nearest neighbour list constructed           ...    0.0 sec
Grid point re-assignment to atoms done       ...    0.0 sec
Grid point division into batches done        ...    0.9 sec
Reduced shell lists constructed in    3.3 sec

Total number of grid points                  ...   108273
Total number of batches                      ...     1697
Average number of points per batch           ...       63
Average number of grid points per atom       ...     9023
Average number of shells per batch           ...    56.10 (55.54%)
Average number of basis functions per batch  ...   148.61 (57.38%)
Average number of large shells per batch     ...    42.51 (75.78%)
Average number of large basis fcns per batch ...   109.60 (73.75%)
Maximum spatial batch extension              ...  32.91, 34.28, 34.94 au
Average spatial batch extension              ...   2.41,  2.43,  2.46 au

Time for grid setup =    3.558 sec

--------------------
COSX GRID GENERATION
--------------------

General Integration Accuracy     IntAcc      ...  3.340
Radial Grid Type                 RadialGrid  ... Gauss-Chebyshev
Angular Grid (max. acc.)         AngularGrid ... Lebedev-50
Angular grid pruning method      GridPruning ... 3 (G Style)
Weight generation scheme         WeightScheme... Becke
Basis function cutoff            BFCut       ...    1.0000e-11
Integration weight cutoff        WCut        ...    1.0000e-14
Grids for H and He will be reduced by one unit

# of grid points (after initial pruning)     ...   6578 (   0.0 sec)
# of grid points (after weights+screening)   ...   6257 (   0.0 sec)
nearest neighbour list constructed           ...    0.0 sec
Grid point re-assignment to atoms done       ...    0.0 sec
Grid point division into batches done        ...    0.0 sec
Reduced shell lists constructed in    0.2 sec

Total number of grid points                  ...     6257
Total number of batches                      ...      104
Average number of points per batch           ...       60
Average number of grid points per atom       ...      521
Average number of shells per batch           ...    67.54 (66.87%)
Average number of basis functions per batch  ...   182.02 (70.28%)
Average number of large shells per batch     ...    52.86 (78.26%)
Average number of large basis fcns per batch ...   138.65 (76.17%)
Maximum spatial batch extension              ...  36.32, 30.01, 40.64 au
Average spatial batch extension              ...   6.38,  5.86,  6.35 au

Overlap Fitting                  UseSFitting ... on
Constructing numerical overlap ... done (      0.1 sec)
Inverting numerical overlap    ... done (      0.0 sec)
Obtaining analytic overlap     ... done (      0.0 sec)
Final contraction and storage  ... done (      0.0 sec)


General Integration Accuracy     IntAcc      ...  3.670
Radial Grid Type                 RadialGrid  ... Gauss-Chebyshev
Angular Grid (max. acc.)         AngularGrid ... Lebedev-50
Angular grid pruning method      GridPruning ... 3 (G Style)
Weight generation scheme         WeightScheme... Becke
Basis function cutoff            BFCut       ...    1.0000e-11
Integration weight cutoff        WCut        ...    1.0000e-14
Grids for H and He will be reduced by one unit

# of grid points (after initial pruning)     ...   8124 (   0.0 sec)
# of grid points (after weights+screening)   ...   7703 (   0.0 sec)
nearest neighbour list constructed           ...    0.0 sec
Grid point re-assignment to atoms done       ...    0.0 sec
Grid point division into batches done        ...    0.0 sec
Reduced shell lists constructed in    0.2 sec

Total number of grid points                  ...     7703
Total number of batches                      ...      126
Average number of points per batch           ...       61
Average number of grid points per atom       ...      642
Average number of shells per batch           ...    66.53 (65.87%)
Average number of basis functions per batch  ...   178.32 (68.85%)
Average number of large shells per batch     ...    51.89 (78.00%)
Average number of large basis fcns per batch ...   135.48 (75.97%)
Maximum spatial batch extension              ...  37.91, 30.96, 42.24 au
Average spatial batch extension              ...   5.87,  5.44,  5.74 au

Overlap Fitting                  UseSFitting ... on
Constructing numerical overlap ... done (      0.1 sec)
Inverting numerical overlap    ... done (      0.0 sec)
Obtaining analytic overlap     ... done (      0.0 sec)
Final contraction and storage  ... done (      0.0 sec)


General Integration Accuracy     IntAcc      ...  4.010
Radial Grid Type                 RadialGrid  ... Gauss-Chebyshev
Angular Grid (max. acc.)         AngularGrid ... Lebedev-110
Angular grid pruning method      GridPruning ... 3 (G Style)
Weight generation scheme         WeightScheme... Becke
Basis function cutoff            BFCut       ...    1.0000e-11
Integration weight cutoff        WCut        ...    1.0000e-14
Grids for H and He will be reduced by one unit

# of grid points (after initial pruning)     ...  15170 (   0.0 sec)
# of grid points (after weights+screening)   ...  14415 (   0.0 sec)
nearest neighbour list constructed           ...    0.0 sec
Grid point re-assignment to atoms done       ...    0.0 sec
Grid point division into batches done        ...    0.0 sec
Reduced shell lists constructed in    0.4 sec

Total number of grid points                  ...    14415
Total number of batches                      ...      233
Average number of points per batch           ...       61
Average number of grid points per atom       ...     1201
Average number of shells per batch           ...    63.62 (62.99%)
Average number of basis functions per batch  ...   170.44 (65.81%)
Average number of large shells per batch     ...    49.12 (77.21%)
Average number of large basis fcns per batch ...   128.37 (75.32%)
Maximum spatial batch extension              ...  38.38, 38.34, 34.29 au
Average spatial batch extension              ...   4.96,  4.87,  4.76 au

Overlap Fitting                  UseSFitting ... on
Constructing numerical overlap ... done (      0.2 sec)
Inverting numerical overlap    ... done (      0.0 sec)
Obtaining analytic overlap     ... done (      0.0 sec)
Final contraction and storage  ... done (      0.0 sec)

Time for X-Grid setup             =    1.377 sec
--------------
SCF ITERATIONS
--------------
ITER       Energy         Delta-E        Max-DP      RMS-DP      [F,P]     Damp
               ***  Starting incremental Fock matrix formation  ***
  0  -1664.0088192025   0.000000000000 0.09604214  0.00196068  0.4731984 0.8500
  1  -1664.7129329546  -0.704113752076 0.08786124  0.00177083  0.4025706 0.8500
                               ***Turning on DIIS***
  2  -1665.3095598374  -0.596626882793 0.07258023  0.00151751  0.3422917 0.8500
  3  -1665.8165316074  -0.506971770029 0.05886416  0.00128652  0.2910325 0.8500
  4  -1666.2542893103  -0.437757702859 0.04913636  0.00110830  0.2474302 0.8500
  5  -1666.6312253670  -0.376936056712 0.04150734  0.00096097  0.2103405 0.8500
  6  -1666.9581645343  -0.326939167235 0.03559162  0.00082962  0.1787981 0.8500
  7  -1667.2425684862  -0.284403951959 0.03068014  0.00071247  0.1519804 0.8500
  8  -1667.4897106834  -0.247142197138 0.02657004  0.00060901  0.1291843 0.8500
  9  -1667.7031185774  -0.213407894017 0.02276583  0.00051910  0.1098077 0.8500
 10  -1667.8867359391  -0.183617361722 0.01933187  0.00044217  0.0933381 0.8500
 11  -1668.0444681760  -0.157732236888 0.01639283  0.00037669  0.0793391 0.8500
 12  -1668.1798105826  -0.135342406616 0.01392986  0.00032095  0.0674399 0.8500
 13  -1668.2958004391  -0.115989856537 0.01186231  0.00027338  0.0573254 0.8500
 14  -1668.3950740101  -0.099273570959 0.01010161  0.00023276  0.0487278 0.8500
 15  -1668.4799432358  -0.084869225740 0.00859288  0.00019814  0.0414196 0.8500
 16  -1668.5524337262  -0.072490490322 0.00730523  0.00016867  0.0352076 0.8500
 17  -1668.6143073194  -0.061873593289 0.04141210  0.00095728  0.0299272 0.0000
                      *** Initiating the SOSCF procedure ***
                           *** Shutting down DIIS ***
                      *** Re-Reading the Fockian *** 
                      *** Removing any level shift *** 
ITER      Energy       Delta-E        Grad      Rot      Max-DP    RMS-DP
 18  -1668.96947582  -0.3551684998  0.000319  0.000319  0.000474  0.000011
               *** Restarting incremental Fock matrix formation ***
 19  -1668.96952849  -0.0000526689  0.000125  0.000534  0.000387  0.000011
 20  -1668.96952909  -0.0000005985  0.000103  0.000253  0.000161  0.000005
 21  -1668.96952933  -0.0000002397  0.000018  0.000027  0.000063  0.000001
 22  -1668.96952937  -0.0000000451  0.000005  0.000021  0.000056  0.000001
 23  -1668.96952939  -0.0000000184  0.000003  0.000006  0.000008  0.000000
                  ***Gradient check signals convergence***
              ***Rediagonalizing the Fockian in SOSCF/NRSCF***

               *****************************************************
               *                     SUCCESS                       *
               *           SCF CONVERGED AFTER  24 CYCLES          *
               *****************************************************

Old exchange energy                            =    -59.242184667 Eh
New exchange energy                            =    -59.244892692 Eh
Exchange energy change after final integration =     -0.002708026 Eh
Total energy after final integration           =  -1668.972237407 Eh
Final COS-X integration done in                =    20.062 sec

----------------
TOTAL SCF ENERGY
----------------

Total Energy       :        -1668.97223741 Eh          -45415.04344 eV

Components:
Nuclear Repulsion  :          607.54387036 Eh           16532.10919 eV
Electronic Energy  :        -2276.51610777 Eh          -61947.15262 eV

One Electron Energy:        -3585.69823485 Eh          -97571.80943 eV
Two Electron Energy:         1309.18212708 Eh           35624.65680 eV

Virial components:
Potential Energy   :        -3207.07087117 Eh          -87268.83507 eV
Kinetic Energy     :         1538.09863376 Eh           41853.79163 eV
Virial Ratio       :            2.08508791


DFT components:
N(Alpha)           :       45.999997929244 electrons
N(Beta)            :       45.999997929244 electrons
N(Total)           :       91.999995858487 electrons
E(X)               :      -52.610763325448 Eh       
E(C)               :       -2.611072080332 Eh       
E(XC)              :      -55.221835405780 Eh       

---------------
SCF CONVERGENCE
---------------

  Last Energy change         ...    8.6029e-09  Tolerance :   1.0000e-08
  Last MAX-Density change    ...    3.9267e-13  Tolerance :   1.0000e-07
  Last RMS-Density change    ...    2.0141e-15  Tolerance :   5.0000e-09
  Last Orbital Gradient      ...    6.6201e-07  Tolerance :   1.0000e-05
  Last Orbital Rotation      ...    2.7071e-06  Tolerance :   1.0000e-05

             **** THE GBW FILE WAS UPDATED (PbMACl3_mp2_md_20.orca.gbw) ****
             **** DENSITY FILE WAS UPDATED (PbMACl3_mp2_md_20.orca.scfp.tmp) ****
             **** ENERGY FILE WAS UPDATED (PbMACl3_mp2_md_20.orca.en.tmp) ****
----------------
ORBITAL ENERGIES
----------------

  NO   OCC          E(Eh)            E(eV) 
   0   2.0000    -102.861069     -2798.9920 
   1   2.0000    -102.849157     -2798.6678 
   2   2.0000    -102.836079     -2798.3120 
   3   2.0000     -15.008476      -408.4014 
   4   2.0000     -10.721954      -291.7592 
   5   2.0000      -9.870232      -268.5827 
   6   2.0000      -9.857276      -268.2301 
   7   2.0000      -9.843701      -267.8607 
   8   2.0000      -7.506918      -204.2736 
   9   2.0000      -7.505597      -204.2377 
  10   2.0000      -7.505192      -204.2267 
  11   2.0000      -7.494167      -203.9267 
  12   2.0000      -7.492556      -203.8828 
  13   2.0000      -7.492316      -203.8763 
  14   2.0000      -7.480695      -203.5601 
  15   2.0000      -7.478938      -203.5123 
  16   2.0000      -7.478792      -203.5083 
  17   2.0000      -5.780193      -157.2870 
  18   2.0000      -3.553039       -96.6831 
  19   2.0000      -3.550260       -96.6075 
  20   2.0000      -3.549597       -96.5894 
  21   2.0000      -1.198593       -32.6154 
  22   2.0000      -0.961279       -26.1577 
  23   2.0000      -0.955804       -26.0088 
  24   2.0000      -0.949638       -25.8410 
  25   2.0000      -0.941961       -25.6321 
  26   2.0000      -0.940964       -25.6049 
  27   2.0000      -0.891489       -24.2586 
  28   2.0000      -0.879818       -23.9411 
  29   2.0000      -0.862217       -23.4621 
  30   2.0000      -0.848771       -23.0962 
  31   2.0000      -0.751467       -20.4484 
  32   2.0000      -0.711194       -19.3526 
  33   2.0000      -0.616363       -16.7721 
  34   2.0000      -0.551895       -15.0178 
  35   2.0000      -0.546338       -14.8666 
  36   2.0000      -0.533816       -14.5259 
  37   2.0000      -0.396973       -10.8022 
  38   2.0000      -0.387748       -10.5512 
  39   2.0000      -0.373098       -10.1525 
  40   2.0000      -0.357591        -9.7305 
  41   2.0000      -0.353277        -9.6132 
  42   2.0000      -0.345746        -9.4082 
  43   2.0000      -0.336269        -9.1503 
  44   2.0000      -0.331273        -9.0144 
  45   2.0000      -0.253690        -6.9033 
  46   0.0000      -0.019703        -0.5361 
  47   0.0000       0.006429         0.1750 
  48   0.0000       0.054657         1.4873 
  49   0.0000       0.056594         1.5400 
  50   0.0000       0.071634         1.9493 
  51   0.0000       0.076296         2.0761 
  52   0.0000       0.089632         2.4390 
  53   0.0000       0.109005         2.9662 
  54   0.0000       0.127186         3.4609 
  55   0.0000       0.134848         3.6694 
  56   0.0000       0.152418         4.1475 
  57   0.0000       0.161060         4.3827 
  58   0.0000       0.164633         4.4799 
  59   0.0000       0.204512         5.5651 
  60   0.0000       0.232487         6.3263 
  61   0.0000       0.242948         6.6109 
  62   0.0000       0.252986         6.8841 
  63   0.0000       0.277318         7.5462 
  64   0.0000       0.281283         7.6541 
  65   0.0000       0.297239         8.0883 
  66   0.0000       0.303014         8.2454 
  67   0.0000       0.314014         8.5448 
  68   0.0000       0.317058         8.6276 
  69   0.0000       0.375425        10.2158 
  70   0.0000       0.390075        10.6145 
  71   0.0000       0.401285        10.9195 
  72   0.0000       0.412329        11.2200 
  73   0.0000       0.426012        11.5924 
  74   0.0000       0.429569        11.6892 
  75   0.0000       0.442960        12.0536 
  76   0.0000       0.449047        12.2192 
  77   0.0000       0.454505        12.3677 
  78   0.0000       0.462406        12.5827 
  79   0.0000       0.468116        12.7381 
  80   0.0000       0.483648        13.1607 
  81   0.0000       0.491923        13.3859 
  82   0.0000       0.501994        13.6599 
  83   0.0000       0.509661        13.8686 
  84   0.0000       0.513840        13.9823 
  85   0.0000       0.536634        14.6026 
  86   0.0000       0.540303        14.7024 
  87   0.0000       0.547706        14.9038 
  88   0.0000       0.560215        15.2442 
  89   0.0000       0.569744        15.5035 
  90   0.0000       0.577743        15.7212 
  91   0.0000       0.591223        16.0880 
  92   0.0000       0.594543        16.1783 
  93   0.0000       0.608332        16.5535 
  94   0.0000       0.617496        16.8029 
  95   0.0000       0.619808        16.8658 
  96   0.0000       0.624927        17.0051 
  97   0.0000       0.647887        17.6299 
  98   0.0000       0.654575        17.8119 
  99   0.0000       0.683160        18.5897 
 100   0.0000       0.722872        19.6704 
 101   0.0000       0.733526        19.9603 
 102   0.0000       0.745996        20.2996 
 103   0.0000       0.751594        20.4519 
 104   0.0000       0.811887        22.0926 
 105   0.0000       0.850531        23.1441 
 106   0.0000       0.870881        23.6979 
 107   0.0000       0.892268        24.2798 
 108   0.0000       0.910586        24.7783 
 109   0.0000       0.911903        24.8141 
 110   0.0000       0.929998        25.3065 
 111   0.0000       0.934996        25.4425 
 112   0.0000       0.948550        25.8113 
 113   0.0000       0.955558        26.0020 
 114   0.0000       0.964440        26.2438 
 115   0.0000       0.986380        26.8408 
 116   0.0000       1.006571        27.3902 
 117   0.0000       1.082151        29.4468 
 118   0.0000       1.092665        29.7329 
 119   0.0000       1.097384        29.8613 
 120   0.0000       1.103334        30.0232 
 121   0.0000       1.123537        30.5730 
 122   0.0000       1.146245        31.1909 
 123   0.0000       1.202426        32.7197 
 124   0.0000       1.230817        33.4922 
 125   0.0000       1.260454        34.2987 
 126   0.0000       1.318867        35.8882 
 127   0.0000       1.340157        36.4675 
 128   0.0000       1.352813        36.8119 
 129   0.0000       1.376028        37.4436 
 130   0.0000       1.411691        38.4141 
 131   0.0000       1.516779        41.2737 
 132   0.0000       1.552106        42.2350 
 133   0.0000       1.570849        42.7450 
 134   0.0000       1.608148        43.7599 
 135   0.0000       1.621597        44.1259 
 136   0.0000       1.713843        46.6360 
 137   0.0000       1.754149        47.7328 
 138   0.0000       1.822257        49.5861 
 139   0.0000       1.849631        50.3310 
 140   0.0000       1.900703        51.7208 
 141   0.0000       1.911535        52.0155 
 142   0.0000       1.930461        52.5305 
 143   0.0000       1.946122        52.9567 
 144   0.0000       1.949047        53.0363 
 145   0.0000       1.958912        53.3047 
 146   0.0000       1.966769        53.5185 
 147   0.0000       1.970538        53.6211 
 148   0.0000       1.985215        54.0204 
 149   0.0000       1.988211        54.1020 
 150   0.0000       2.000235        54.4292 
 151   0.0000       2.012136        54.7530 
 152   0.0000       2.027267        55.1647 
 153   0.0000       2.063761        56.1578 
 154   0.0000       2.069940        56.3259 
 155   0.0000       2.077947        56.5438 
 156   0.0000       2.091072        56.9010 
 157   0.0000       2.098058        57.0911 
 158   0.0000       2.114242        57.5314 
 159   0.0000       2.119934        57.6863 
 160   0.0000       2.121673        57.7337 
 161   0.0000       2.134396        58.0799 
 162   0.0000       2.157628        58.7121 
 163   0.0000       2.161288        58.8116 
 164   0.0000       2.182853        59.3984 
 165   0.0000       2.194802        59.7236 
 166   0.0000       2.208632        60.0999 
 167   0.0000       2.238866        60.9226 
 168   0.0000       2.245103        61.0924 
 169   0.0000       2.249413        61.2096 
 170   0.0000       2.253332        61.3163 
 171   0.0000       2.256205        61.3945 
 172   0.0000       2.267779        61.7094 
 173   0.0000       2.269586        61.7586 
 174   0.0000       2.274750        61.8991 
 175   0.0000       2.294490        62.4363 
 176   0.0000       2.301227        62.6196 
 177   0.0000       2.305411        62.7334 
 178   0.0000       2.308281        62.8115 
 179   0.0000       2.314322        62.9759 
 180   0.0000       2.347777        63.8863 
 181   0.0000       2.366127        64.3856 
 182   0.0000       2.375963        64.6532 
 183   0.0000       2.399318        65.2888 
 184   0.0000       2.403982        65.4157 
 185   0.0000       2.407037        65.4988 
 186   0.0000       2.419842        65.8472 
 187   0.0000       2.424152        65.9645 
 188   0.0000       2.435246        66.2664 
 189   0.0000       2.439629        66.3857 
 190   0.0000       2.444811        66.5267 
 191   0.0000       2.451519        66.7092 
 192   0.0000       2.469921        67.2100 
 193   0.0000       2.476417        67.3867 
 194   0.0000       2.495949        67.9182 
 195   0.0000       2.525809        68.7308 
 196   0.0000       2.538053        69.0639 
 197   0.0000       2.581970        70.2590 
 198   0.0000       2.594988        70.6132 
 199   0.0000       2.612342        71.0855 
 200   0.0000       2.625597        71.4461 
 201   0.0000       2.679517        72.9134 
 202   0.0000       2.691581        73.2416 
 203   0.0000       2.705747        73.6271 
 204   0.0000       2.748550        74.7918 
 205   0.0000       2.753494        74.9264 
 206   0.0000       2.783034        75.7302 
 207   0.0000       2.818915        76.7066 
 208   0.0000       2.881121        78.3993 
 209   0.0000       2.890291        78.6488 
 210   0.0000       2.930808        79.7513 
 211   0.0000       2.996096        81.5279 
 212   0.0000       3.038431        82.6799 
 213   0.0000       3.112825        84.7043 
 214   0.0000       3.187491        86.7360 
 215   0.0000       3.218241        87.5728 
 216   0.0000       3.274538        89.1047 
 217   0.0000       3.408338        92.7456 
 218   0.0000       3.535616        96.2090 
 219   0.0000       3.537086        96.2490 
 220   0.0000       3.571976        97.1984 
 221   0.0000       3.597033        97.8803 
 222   0.0000       3.665452        99.7420 
 223   0.0000       3.897555       106.0579 
 224   0.0000       4.002215       108.9058 
 225   0.0000       4.168517       113.4311 
 226   0.0000       4.226030       114.9961 
 227   0.0000       4.454461       121.2120 
 228   0.0000       4.510191       122.7285 
 229   0.0000       4.722531       128.5066 
 230   0.0000       4.791359       130.3795 
 231   0.0000       4.867777       132.4589 
 232   0.0000       4.922624       133.9514 
 233   0.0000       5.027329       136.8006 
 234   0.0000       5.045145       137.2854 
 235   0.0000       5.167750       140.6216 
 236   0.0000       5.227203       142.2394 
 237   0.0000       5.469685       148.8377 
 238   0.0000       5.561918       151.3475 
 239   0.0000       6.019262       163.7925 
 240   0.0000      11.053128       300.7709 
 241   0.0000      11.067075       301.1504 
 242   0.0000      11.078529       301.4621 
 243   0.0000      11.092628       301.8457 
 244   0.0000      11.111372       302.3558 
 245   0.0000      11.113777       302.4212 
 246   0.0000      11.206325       304.9396 
 247   0.0000      11.230450       305.5961 
 248   0.0000      11.233739       305.6856 
 249   0.0000      22.620845       615.5445 
 250   0.0000      25.248015       687.0334 
 251   0.0000      25.290719       688.1955 
 252   0.0000      25.361743       690.1281 
 253   0.0000      32.359022       880.5338 
 254   0.0000      35.621001       969.2967 
 255   0.0000      35.853348       975.6192 
 256   0.0000      35.875802       976.2302 
 257   0.0000      35.931409       977.7434 
 258   0.0000     123.663911      3365.0661 

                    ********************************
                    * MULLIKEN POPULATION ANALYSIS *
                    ********************************

-----------------------
MULLIKEN ATOMIC CHARGES
-----------------------
   0 C :   -0.283012
   1 N :   -0.281053
   2 H :    0.273875
   3 H :    0.291075
   4 H :    0.322091
   5 H :    0.147131
   6 H :    0.215260
   7 H :    0.167362
   8 Pb:    0.773810
   9 Cl:   -0.536271
  10 Cl:   -0.549026
  11 Cl:   -0.541242
Sum of atomic charges:   -0.0000000

--------------------------------
MULLIKEN REDUCED ORBITAL CHARGES
--------------------------------
  0 C s       :     3.279807  s :     3.279807
      pz      :     0.765852  p :     2.933815
      px      :     1.087962
      py      :     1.080001
      dz2     :     0.016469  d :     0.063522
      dxz     :     0.010232
      dyz     :     0.015720
      dx2y2   :     0.014949
      dxy     :     0.006153
      f0      :     0.001224  f :     0.005868
      f+1     :     0.000983
      f-1     :     0.001777
      f+2     :     0.000470
      f-2     :     0.000491
      f+3     :     0.000836
      f-3     :     0.000087
  1 N s       :     3.425177  s :     3.425177
      pz      :     1.255144  p :     3.809040
      px      :     1.314833
      py      :     1.239063
      dz2     :     0.010701  d :     0.044516
      dxz     :     0.013659
      dyz     :     0.007355
      dx2y2   :     0.006566
      dxy     :     0.006235
      f0      :     0.000526  f :     0.002320
      f+1     :     0.000211
      f-1     :     0.000395
      f+2     :     0.000285
      f-2     :     0.000415
      f+3     :     0.000332
      f-3     :     0.000158
  2 H s       :     0.685157  s :     0.685157
      pz      :     0.012510  p :     0.040969
      px      :     0.014653
      py      :     0.013805
  3 H s       :     0.675421  s :     0.675421
      pz      :     0.006542  p :     0.033505
      px      :     0.008028
      py      :     0.018935
  4 H s       :     0.637215  s :     0.637215
      pz      :     0.014341  p :     0.040694
      px      :     0.020590
      py      :     0.005763
  5 H s       :     0.830465  s :     0.830465
      pz      :     0.003774  p :     0.022404
      px      :     0.014398
      py      :     0.004232
  6 H s       :     0.761019  s :     0.761019
      pz      :     0.003063  p :     0.023722
      px      :     0.005811
      py      :     0.014848
  7 H s       :     0.810675  s :     0.810675
      pz      :     0.009777  p :     0.021963
      px      :     0.006410
      py      :     0.005776
  8 Pbs       :     3.946612  s :     3.946612
      pz      :     2.363259  p :     7.029897
      px      :     2.336924
      py      :     2.329714
      dz2     :     2.032040  d :    10.174139
      dxz     :     2.038528
      dyz     :     2.034614
      dx2y2   :     2.037459
      dxy     :     2.031499
      f0      :     0.009383  f :     0.075542
      f+1     :     0.012745
      f-1     :     0.007926
      f+2     :     0.014668
      f-2     :     0.008207
      f+3     :     0.010318
      f-3     :     0.012295
  9 Cls       :     5.949884  s :     5.949884
      pz      :     3.926240  p :    11.564390
      px      :     3.779659
      py      :     3.858491
      dz2     :     0.002888  d :     0.020983
      dxz     :     0.003969
      dyz     :     0.001164
      dx2y2   :     0.007292
      dxy     :     0.005671
      f0      :     0.000105  f :     0.001014
      f+1     :     0.000174
      f-1     :     0.000048
      f+2     :     0.000102
      f-2     :     0.000095
      f+3     :     0.000209
      f-3     :     0.000282
 10 Cls       :     5.952845  s :     5.952845
      pz      :     3.829696  p :    11.571062
      px      :     3.934998
      py      :     3.806368
      dz2     :     0.005701  d :     0.024102
      dxz     :     0.002484
      dyz     :     0.007635
      dx2y2   :     0.006174
      dxy     :     0.002107
      f0      :     0.000149  f :     0.001017
      f+1     :     0.000068
      f-1     :     0.000137
      f+2     :     0.000293
      f-2     :     0.000090
      f+3     :     0.000099
      f-3     :     0.000180
 11 Cls       :     5.950924  s :     5.950924
      pz      :     3.829103  p :    11.570468
      px      :     3.821214
      py      :     3.920151
      dz2     :     0.005022  d :     0.018935
      dxz     :     0.008198
      dyz     :     0.001924
      dx2y2   :     0.002157
      dxy     :     0.001634
      f0      :     0.000123  f :     0.000915
      f+1     :     0.000364
      f-1     :     0.000052
      f+2     :     0.000197
      f-2     :     0.000111
      f+3     :     0.000037
      f-3     :     0.000032


                     *******************************
                     * LOEWDIN POPULATION ANALYSIS *
                     *******************************

----------------------
LOEWDIN ATOMIC CHARGES
----------------------
   0 C :   -0.264566
   1 N :    0.130918
   2 H :    0.145952
   3 H :    0.208770
   4 H :    0.192045
   5 H :    0.122976
   6 H :    0.129818
   7 H :    0.127448
   8 Pb:   -0.200864
   9 Cl:   -0.192725
  10 Cl:   -0.182758
  11 Cl:   -0.217014

-------------------------------
LOEWDIN REDUCED ORBITAL CHARGES
-------------------------------
  0 C s       :     2.859259  s :     2.859259
      pz      :     0.886999  p :     3.085874
      px      :     1.108714
      py      :     1.090161
      dz2     :     0.085945  d :     0.284755
      dxz     :     0.051799
      dyz     :     0.070516
      dx2y2   :     0.052321
      dxy     :     0.024173
      f0      :     0.007397  f :     0.034677
      f+1     :     0.006702
      f-1     :     0.008602
      f+2     :     0.003018
      f-2     :     0.004817
      f+3     :     0.003388
      f-3     :     0.000753
  1 N s       :     2.974660  s :     2.974660
      pz      :     1.265817  p :     3.726968
      px      :     1.248266
      py      :     1.212886
      dz2     :     0.035224  d :     0.157094
      dxz     :     0.045582
      dyz     :     0.030226
      dx2y2   :     0.025411
      dxy     :     0.020650
      f0      :     0.002348  f :     0.010359
      f+1     :     0.001342
      f-1     :     0.001705
      f+2     :     0.000972
      f-2     :     0.002146
      f+3     :     0.001127
      f-3     :     0.000719
  2 H s       :     0.721579  s :     0.721579
      pz      :     0.040695  p :     0.132469
      px      :     0.047678
      py      :     0.044095
  3 H s       :     0.692044  s :     0.692044
      pz      :     0.020147  p :     0.099187
      px      :     0.025163
      py      :     0.053876
  4 H s       :     0.688153  s :     0.688153
      pz      :     0.039164  p :     0.119802
      px      :     0.065686
      py      :     0.014952
  5 H s       :     0.811604  s :     0.811604
      pz      :     0.011456  p :     0.065420
      px      :     0.039885
      py      :     0.014079
  6 H s       :     0.801307  s :     0.801307
      pz      :     0.009345  p :     0.068875
      px      :     0.017005
      py      :     0.042525
  7 H s       :     0.809489  s :     0.809489
      pz      :     0.025773  p :     0.063063
      px      :     0.018856
      py      :     0.018435
  8 Pbs       :     3.691074  s :     3.691074
      pz      :     2.522143  p :     7.534179
      px      :     2.523453
      py      :     2.488583
      dz2     :     2.123795  d :    10.735918
      dxz     :     2.163839
      dyz     :     2.149573
      dx2y2   :     2.165823
      dxy     :     2.132888
      f0      :     0.026552  f :     0.239693
      f+1     :     0.045527
      f-1     :     0.020467
      f+2     :     0.054128
      f-2     :     0.021297
      f+3     :     0.027731
      f-3     :     0.043991
  9 Cls       :     5.731267  s :     5.731267
      pz      :     3.867743  p :    11.416055
      px      :     3.745310
      py      :     3.803002
      dz2     :     0.006460  d :     0.042829
      dxz     :     0.007762
      dyz     :     0.001495
      dx2y2   :     0.017445
      dxy     :     0.009667
      f0      :     0.000262  f :     0.002573
      f+1     :     0.000427
      f-1     :     0.000077
      f+2     :     0.000300
      f-2     :     0.000197
      f+3     :     0.000500
      f-3     :     0.000811
 10 Cls       :     5.724652  s :     5.724652
      pz      :     3.764370  p :    11.405483
      px      :     3.871780
      py      :     3.769333
      dz2     :     0.007956  d :     0.049814
      dxz     :     0.002929
      dyz     :     0.017919
      dx2y2   :     0.018406
      dxy     :     0.002603
      f0      :     0.000511  f :     0.002810
      f+1     :     0.000124
      f-1     :     0.000235
      f+2     :     0.001012
      f-2     :     0.000127
      f+3     :     0.000130
      f-3     :     0.000671
 11 Cls       :     5.744919  s :     5.744919
      pz      :     3.789286  p :    11.432001
      px      :     3.776856
      py      :     3.865859
      dz2     :     0.011316  d :     0.037881
      dxz     :     0.020149
      dyz     :     0.001941
      dx2y2   :     0.002993
      dxy     :     0.001482
      f0      :     0.000182  f :     0.002213
      f+1     :     0.001261
      f-1     :     0.000061
      f+2     :     0.000505
      f-2     :     0.000118
      f+3     :     0.000056
      f-3     :     0.000031


                      *****************************
                      * MAYER POPULATION ANALYSIS *
                      *****************************

  NA   - Mulliken gross atomic population
  ZA   - Total nuclear charge
  QA   - Mulliken gross atomic charge
  VA   - Mayer's total valence
  BVA  - Mayer's bonded valence
  FA   - Mayer's free valence

  ATOM       NA         ZA         QA         VA         BVA        FA
  0 C      6.2830     6.0000    -0.2830     3.8010     3.8010    -0.0000
  1 N      7.2811     7.0000    -0.2811     3.4505     3.4505    -0.0000
  2 H      0.7261     1.0000     0.2739     0.9619     0.9619     0.0000
  3 H      0.7089     1.0000     0.2911     0.9140     0.9140    -0.0000
  4 H      0.6779     1.0000     0.3221     0.9493     0.9493     0.0000
  5 H      0.8529     1.0000     0.1471     0.9586     0.9586    -0.0000
  6 H      0.7847     1.0000     0.2153     0.9741     0.9741    -0.0000
  7 H      0.8326     1.0000     0.1674     0.9619     0.9619     0.0000
  8 Pb    21.2262    22.0000     0.7738     2.0087     2.0087    -0.0000
  9 Cl    17.5363    17.0000    -0.5363     0.7846     0.7846     0.0000
 10 Cl    17.5490    17.0000    -0.5490     0.7594     0.7594     0.0000
 11 Cl    17.5412    17.0000    -0.5412     0.7790     0.7790    -0.0000

  Mayer bond orders larger than 0.1
B(  0-C ,  1-N ) :   0.8728 B(  0-C ,  5-H ) :   0.9595 B(  0-C ,  6-H ) :   0.9442 
B(  0-C ,  7-H ) :   0.9622 B(  1-N ,  2-H ) :   0.9035 B(  1-N ,  3-H ) :   0.8984 
B(  1-N ,  4-H ) :   0.7861 B(  4-H , 10-Cl) :   0.1445 B(  8-Pb,  9-Cl) :   0.6875 
B(  8-Pb, 10-Cl) :   0.5769 B(  8-Pb, 11-Cl) :   0.7177 

-------
TIMINGS
-------

Total SCF time: 0 days 0 hours 5 min 24 sec 

Total time                  ....     324.880 sec
Sum of individual times     ....     303.873 sec  ( 93.5%)

Fock matrix formation       ....     297.955 sec  ( 91.7%)
  Coulomb formation         ....     230.733 sec  ( 77.4% of F)
  Split-RI-J                ....      19.634 sec  (  6.6% of F)
  Chain of spheres X        ....     231.095 sec  ( 77.6% of F)
  COS-X 1 center corr.      ....       0.000 sec  (  0.0% of F)
  XC integration            ....      67.259 sec  ( 22.6% of F)
    Basis function eval.    ....      31.785 sec  ( 47.3% of XC)
    Density eval.           ....      13.018 sec  ( 19.4% of XC)
    XC-Functional eval.     ....       3.214 sec  (  4.8% of XC)
    XC-Potential eval.      ....      18.162 sec  ( 27.0% of XC)
Diagonalization             ....       0.543 sec  (  0.2%)
Density matrix formation    ....       0.040 sec  (  0.0%)
Population analysis         ....       0.068 sec  (  0.0%)
Initial guess               ....       0.113 sec  (  0.0%)
Orbital Transformation      ....       0.000 sec  (  0.0%)
Orbital Orthonormalization  ....       0.110 sec  (  0.0%)
DIIS solution               ....       0.136 sec  (  0.0%)
SOSCF solution              ....       0.083 sec  (  0.0%)
Grid generation             ....       4.935 sec  (  1.5%)

------------------------------------------------------------------------------
                              ORCA MP2 CALCULATION
------------------------------------------------------------------------------


----------------------
RI-MP2 ENERGY+GRADIENT
----------------------
Dimension of the basis                    ...  259
Memory devoted to MP2                     ... 1000 MB   
Data format for buffers                   ... DOUBLE
Compression type for matrix containers    ... UNCOMPRESSED
Overall scaling of the MP2 energy         ...   2.700e-01 Eh
Calculating two index integrals           ... done (    0.011 sec)
Cholesky decomposition of the V-matrix    ... done
Cholesky decomposition of V**-1           ... done (    0.020 sec)

-----------------
RI-TRANSFORMATION (AUX index driven)
-----------------

Dimension of the orbital-basis         ... 259
Dimension of the aux-basis             ... 493
Transformation of internal MOs         ...    0-  45
Transformation of internal/external MOs...    0-  45 to   46- 258
Number Format for Storage              ... Double (8 Byte)
Integral mode                          ... Direct

First Phase: integral generation and transformation of MO indices
  Aux angular momentum 0               ... done (    0.462 sec)
  Aux angular momentum 1               ... done (    0.331 sec)
  Aux angular momentum 2               ... done (    0.367 sec)
  Aux angular momentum 3               ... done (    0.207 sec)
  Aux angular momentum 4               ... done (    0.174 sec)
Closing buffer VIJ ( 0.00 GB; CompressionRatio= 1.95)
Closing buffer VIA ( 0.04 GB; CompressionRatio= 1.00)
  Phase 1 completed in     1.639 sec
Second Phase: sorting and transformation of aux index

IJ-Transformation
Memory available                       ... 990 MB 
Max. # MO pairs treated in a batch     ... 46    
# of internal orbitals                 ... 46
# batches for internal orbitals        ... 1
Closing buffer IJV ( 0.00 GB; CompressionRatio= 1.00)
(ij|v) transformation done in     0.085 sec

IA-Transformation
Memory available                       ... 990 MB 
Max. # MO pairs treated in a batch     ... 46    
# of internal orbitals                 ... 46
# batches for internal orbitals        ... 1
Closing buffer IAV ( 0.04 GB; CompressionRatio= 1.00)
(ia|v) transformation done in     0.334 sec

  Phase 2 completed in     0.438 sec
RI-Integral transformation completed in     2.077 sec
Opening buffers                              ... done

Starting loop over batches of integrals:

Operator 0  - window                       ... (  0- 45)x( 46-258)
Operator 0  - Memory available             ...  1000 MB
Operator 0  - Memory needed per MO         ...   1.6 MB
Operator 0  - Number of orbitals per batch ... 46
Operator 0  - Number of batches            ... 1

OPERATOR  0   PASS   0:  MOs     0 ...   45
  Reading integrals       ... ok
  Internal MO   2
  Internal MO   5
  Internal MO   8
  Internal MO  11
  Internal MO  14
  Internal MO  17
  Internal MO  20
  Internal MO  23
  Internal MO  26
  Internal MO  29
  Internal MO  32
  Internal MO  35
  Internal MO  38
  Internal MO  41
  Internal MO  44
Closing buffer GIPV ( 0.04 GB; CompressionRatio= 1.00)
Time spent in pair loops =    40.757 sec

-----------------------------------------------
 RI-MP2 CORRELATION ENERGY:     -0.580769290 Eh
-----------------------------------------------


---------------------
MP2 DENSITY FORMATION
---------------------

Completing the external part of the density      ... done
Storing the unrelaxed density                    ... done

Calculating the xc-kernel                        ... done
Calculating G(D)                                 ... done
Completing the Lagrangian                        ... done
Solving the Z-vector equations                   ... 

------------------------------------------------------------------------------
                           ORCA CP-SCF CALCULATION
------------------------------------------------------------------------------

Input orbitals are from        ... PbMACl3_mp2_md_20.orca.gbw
Input Perturbation             ... PbMACl3_mp2_md_20.orca.pin.tmp
Wavefunction output            ... PbMACl3_mp2_md_20.orca.pout.tmp
Perturbation mode              ... Real perturbation
Solver                         ... DIIS
   MaxDIIS                     ... 20
   Levelshift                  ...    3.000e-01 Eh
Max. number of iterations      ... 128
Convergence tolerance          ... 1.000e-08
Integral handling              ... Direct
COSX GridX                     ... 1
Number of perturbations        ... 1
Number of operators            ... 1
Orbital ranges used for CP-SCF:
 Operator 0:  Orbitals   0... 45  to  46...258
DFT calculation                         ... on
Exchange functional (SCF)               ... B88
Exchange functional (CP-SCF)            ... B88
   X-Alpha parameter    XAlpha (SCF)    ...  0.666667
   X-Alpha parameter    XAlpha (CP-SCF) ...  0.666667
   Becke's b parameter  XBeta (SCF)     ...  0.004200
   Becke's b parameter  XBeta (CP-SCF)  ...  0.004200
Correlation functional (SCF)            ... LYP
Correlation functional (CP-SCF)         ... LYP
 LDA part of GGA corr.  LDAOpt (SCF)    ... VWN-3
 LDA part of GGA corr.  LDAOpt (CP-SCF) ... VWN-3
Hybrid DFT                              ... on
   Exchange mixing (SCF)                ...  0.530
   Exchange mixing (CP-SCF)             ...  0.530
   GGA exch. scaling(SCF)               ...  0.470
   GGA exch. scaling (CP-SCF)           ...  0.470
   GGA corr. scaling (SCF)              ...  0.730
   GGA corr. scaling (CP-SCF)           ...  0.730
The RIJCOSX approximation is active
Variables per vector in CP-SCF ... 9798
Number of vectors sought       ... 1
Calculating the xc-kernel      ... done

Solving the CP-SCF equations by a DIIS algorithm

-----------------
CP-SCF ITERATIONS
-----------------
  Iteration   0: MaxR=  0.090789680
  Iteration   1: MaxR=  0.044287526
  Iteration   2: MaxR=  0.012595786
  Iteration   3: MaxR=  0.005583423
  Iteration   4: MaxR=  0.002983828
  Iteration   5: MaxR=  0.001299903
  Iteration   6: MaxR=  0.000505664
  Iteration   7: MaxR=  0.000141902
  Iteration   8: MaxR=  0.000055464
  Iteration   9: MaxR=  0.000019651
  Iteration  10: MaxR=  0.000008337
  Iteration  11: MaxR=  0.000003246
  Iteration  12: MaxR=  0.000001302
  Iteration  13: MaxR=  0.000000471
  Iteration  14: MaxR=  0.000000195
  Iteration  15: MaxR=  0.000000071
  Iteration  16: MaxR=  0.000000020
  Iteration  17: MaxR=  0.000000007
                              *** THE CP-SCF HAS CONVERGED *** 
done
Finalizing the relaxed density                   ... done
Transforming P to the AO basis                   ... done
Storing the relaxed density                      ... done

------------------------------------
ENERGY WEIGHTED DENSITY FINALIZATION
------------------------------------

Gathering the parts of the W-matrix              ... done
Forming the Z-density                            ... done
Transforming Z to the AO basis                   ... done
Calculating G(Z)                                 ... done
Finalizing the W-matrix                          ... done
Transforming W to the AO basis and storing       ... done
Entering the RIJONX and RIJCOSX sections
Starting the three-index derivative integrals:
Operator 0  - Memory available             ...  1000 MB
Operator 0  - Memory needed per MO         ...   1.0 MB
Operator 0  - Number of orbitals per batch ... 46
Operator 0  - Number of batches            ... 1

OPERATOR  0   PASS   0:  MOs     0 ...   45

----------------------------------
MP2 DERIVATIVE INTEGRAL GENERATION
----------------------------------


Input Correlated Electron Density   ... PbMACl3_mp2_md_20.orca.pmp2re
Input Energy Weighted Density       ... PbMACl3_mp2_md_20.orca.wmp2.tmp
Input SCF Electron Density          ... PbMACl3_mp2_md_20.orca.scfp.tmp

One-Electron Terms    ...
  ECP gradient                                           ... One-Electron Terms done

-----------------------------------------------------------
MP2 COSX Grid Generation
-----------------------------------------------------------

General Integration Accuracy     IntAcc      ...  4.340
Radial Grid Type                 RadialGrid  ... Gauss-Chebyshev
Angular Grid (max. acc.)         AngularGrid ... Lebedev-302
Angular grid pruning method      GridPruning ... 3 (G Style)
Weight generation scheme         WeightScheme... Becke
Basis function cutoff            BFCut       ...    1.0000e-11
Integration weight cutoff        WCut        ...    1.0000e-14
Grids for H and He will be reduced by one unit

# of grid points (after initial pruning)     ...  57718 (   0.0 sec)
# of grid points (after weights+screening)   ...  54183 (   0.1 sec)
nearest neighbour list constructed           ...    0.0 sec
Grid point re-assignment to atoms done       ...    0.0 sec
Grid point division into batches done        ...    0.2 sec
Reduced shell lists constructed in    1.5 sec

Total number of grid points                  ...    54183
Total number of batches                      ...      853
Average number of points per batch           ...       63
Average number of grid points per atom       ...     4515
Average number of shells per batch           ...    57.93 (57.36%)
Average number of basis functions per batch  ...   154.09 (59.50%)
Average number of large shells per batch     ...    44.01 (75.96%)
Average number of large basis fcns per batch ...   113.98 (73.97%)
Maximum spatial batch extension              ...  36.10, 36.86, 31.95 au
Average spatial batch extension              ...   3.09,  3.07,  3.07 au

Overlap Fitting                  UseSFitting ... on
Two electron COSX terms .... 
Integration Timings:
Total Time                  =    83.3 sec
Basis fcn evaluation        =     0.6 sec
Density evaluation          =     0.9 sec
Integral evaluation         =    79.9 sec
K(P) evaluation             =     0.7 sec
                          .... COSX two electron terms done
COSX two-electron contribution to the gradient
     0:    -0.017468     0.042074    -0.051838
     1:    -0.063949    -0.047529     0.046870
     2:     0.152660    -0.123762    -0.111447
     3:     0.075955     0.196038     0.023866
     4:    -0.170239     0.033372    -0.062861
     5:     0.166285    -0.000632     0.019315
     6:    -0.059746    -0.163406     0.011032
     7:    -0.080604     0.072296     0.132779
     8:    -0.009706    -0.005626    -0.029889
     9:     0.060881    -0.035425     0.007319
    10:    -0.002708     0.039093    -0.039396
    11:    -0.051512    -0.007166     0.055054
Exchange-correlation gradient    ... done
Dispersion correction            ... 
Entering the calculation of the dispersion correction...

Checking the input atom types...

Done
done

                *********************************************
                * UNRELAXED MP2 DENSITY POPULATION ANALYSIS *
                *********************************************

------------------------------------------------------------------------------
                           ORCA POPULATION ANALYSIS
------------------------------------------------------------------------------
Input electron density              ... PbMACl3_mp2_md_20.orca.pmp2ur
BaseName (.gbw .S,...)              ... PbMACl3_mp2_md_20.orca

                    ********************************
                    * MULLIKEN POPULATION ANALYSIS *
                    ********************************

-----------------------
MULLIKEN ATOMIC CHARGES
-----------------------
   0 C :   -0.288347
   1 N :   -0.280033
   2 H :    0.273795
   3 H :    0.291173
   4 H :    0.320650
   5 H :    0.148264
   6 H :    0.215594
   7 H :    0.168371
   8 Pb:    0.757876
   9 Cl:   -0.529874
  10 Cl:   -0.542874
  11 Cl:   -0.534595
Sum of atomic charges:   -0.0000000

--------------------------------
MULLIKEN REDUCED ORBITAL CHARGES
--------------------------------
  0 C s       :     3.278823  s :     3.278823
      pz      :     0.766304  p :     2.930183
      px      :     1.086017
      py      :     1.077862
      dz2     :     0.017834  d :     0.072333
      dxz     :     0.012117
      dyz     :     0.017273
      dx2y2   :     0.016838
      dxy     :     0.008272
      f0      :     0.001389  f :     0.007008
      f+1     :     0.001145
      f-1     :     0.001907
      f+2     :     0.000648
      f-2     :     0.000652
      f+3     :     0.000993
      f-3     :     0.000274
  1 N s       :     3.423045  s :     3.423045
      pz      :     1.251068  p :     3.798515
      px      :     1.311323
      py      :     1.236124
      dz2     :     0.012815  d :     0.055115
      dxz     :     0.015778
      dyz     :     0.009469
      dx2y2   :     0.008704
      dxy     :     0.008349
      f0      :     0.000675  f :     0.003358
      f+1     :     0.000366
      f-1     :     0.000541
      f+2     :     0.000432
      f-2     :     0.000562
      f+3     :     0.000474
      f-3     :     0.000307
  2 H s       :     0.684611  s :     0.684611
      pz      :     0.012727  p :     0.041594
      px      :     0.014857
      py      :     0.014010
  3 H s       :     0.674697  s :     0.674697
      pz      :     0.006807  p :     0.034130
      px      :     0.008266
      py      :     0.019057
  4 H s       :     0.638110  s :     0.638110
      pz      :     0.014590  p :     0.041240
      px      :     0.020609
      py      :     0.006040
  5 H s       :     0.828287  s :     0.828287
      pz      :     0.004157  p :     0.023449
      px      :     0.014689
      py      :     0.004604
  6 H s       :     0.759713  s :     0.759713
      pz      :     0.003457  p :     0.024693
      px      :     0.006163
      py      :     0.015073
  7 H s       :     0.808684  s :     0.808684
      pz      :     0.010078  p :     0.022945
      px      :     0.006739
      py      :     0.006128
  8 Pbs       :     3.926323  s :     3.926323
      pz      :     2.372306  p :     7.057633
      px      :     2.346087
      py      :     2.339240
      dz2     :     2.026552  d :    10.146272
      dxz     :     2.032969
      dyz     :     2.028970
      dx2y2   :     2.031845
      dxy     :     2.025937
      f0      :     0.014607  f :     0.111896
      f+1     :     0.017820
      f-1     :     0.013218
      f+2     :     0.019762
      f-2     :     0.013486
      f+3     :     0.015586
      f-3     :     0.017418
  9 Cls       :     5.945274  s :     5.945274
      pz      :     3.911673  p :    11.520822
      px      :     3.765225
      py      :     3.843924
      dz2     :     0.010661  d :     0.060029
      dxz     :     0.011839
      dyz     :     0.008933
      dx2y2   :     0.015111
      dxy     :     0.013485
      f0      :     0.000487  f :     0.003749
      f+1     :     0.000566
      f-1     :     0.000424
      f+2     :     0.000494
      f-2     :     0.000485
      f+3     :     0.000613
      f-3     :     0.000680
 10 Cls       :     5.948282  s :     5.948282
      pz      :     3.814955  p :    11.527226
      px      :     3.920425
      py      :     3.791846
      dz2     :     0.013660  d :     0.063563
      dxz     :     0.010333
      dyz     :     0.015544
      dx2y2   :     0.013999
      dxy     :     0.010027
      f0      :     0.000551  f :     0.003803
      f+1     :     0.000459
      f-1     :     0.000554
      f+2     :     0.000686
      f-2     :     0.000488
      f+3     :     0.000495
      f-3     :     0.000570
 11 Cls       :     5.946283  s :     5.946283
      pz      :     3.814553  p :    11.526912
      px      :     3.806711
      py      :     3.905648
      dz2     :     0.012858  d :     0.057773
      dxz     :     0.015918
      dyz     :     0.009740
      dx2y2   :     0.009885
      dxy     :     0.009372
      f0      :     0.000523  f :     0.003627
      f+1     :     0.000758
      f-1     :     0.000442
      f+2     :     0.000583
      f-2     :     0.000501
      f+3     :     0.000413
      f-3     :     0.000409


                     *******************************
                     * LOEWDIN POPULATION ANALYSIS *
                     *******************************

----------------------
LOEWDIN ATOMIC CHARGES
----------------------
   0 C :   -0.268307
   1 N :    0.130265
   2 H :    0.146048
   3 H :    0.208766
   4 H :    0.191280
   5 H :    0.123657
   6 H :    0.130323
   7 H :    0.128174
   8 Pb:   -0.211420
   9 Cl:   -0.188180
  10 Cl:   -0.178557
  11 Cl:   -0.212049

-------------------------------
LOEWDIN REDUCED ORBITAL CHARGES
-------------------------------
  0 C s       :     2.858729  s :     2.858729
      pz      :     0.885777  p :     3.079125
      px      :     1.105936
      py      :     1.087412
      dz2     :     0.087550  d :     0.294028
      dxz     :     0.053511
      dyz     :     0.072226
      dx2y2   :     0.054425
      dxy     :     0.026317
      f0      :     0.007636  f :     0.036426
      f+1     :     0.006935
      f-1     :     0.008949
      f+2     :     0.003239
      f-2     :     0.005029
      f+3     :     0.003666
      f-3     :     0.000972
  1 N s       :     2.974145  s :     2.974145
      pz      :     1.261399  p :     3.715847
      px      :     1.244856
      py      :     1.209591
      dz2     :     0.037488  d :     0.168074
      dxz     :     0.047660
      dyz     :     0.032477
      dx2y2   :     0.027606
      dxy     :     0.022843
      f0      :     0.002544  f :     0.011669
      f+1     :     0.001512
      f-1     :     0.001912
      f+2     :     0.001163
      f-2     :     0.002330
      f+3     :     0.001316
      f-3     :     0.000891
  2 H s       :     0.720152  s :     0.720152
      pz      :     0.041128  p :     0.133799
      px      :     0.048144
      py      :     0.044528
  3 H s       :     0.690662  s :     0.690662
      pz      :     0.020465  p :     0.100573
      px      :     0.025550
      py      :     0.054557
  4 H s       :     0.687669  s :     0.687669
      pz      :     0.039564  p :     0.121051
      px      :     0.066162
      py      :     0.015325
  5 H s       :     0.809010  s :     0.809010
      pz      :     0.011944  p :     0.067333
      px      :     0.040875
      py      :     0.014513
  6 H s       :     0.798988  s :     0.798988
      pz      :     0.009836  p :     0.070689
      px      :     0.017504
      py      :     0.043348
  7 H s       :     0.806973  s :     0.806973
      pz      :     0.026486  p :     0.064853
      px      :     0.019374
      py      :     0.018993
  8 Pbs       :     3.673786  s :     3.673786
      pz      :     2.529671  p :     7.557126
      px      :     2.530944
      py      :     2.496512
      dz2     :     2.117878  d :    10.704892
      dxz     :     2.157607
      dyz     :     2.143096
      dx2y2   :     2.159645
      dxy     :     2.126666
      f0      :     0.031782  f :     0.275615
      f+1     :     0.050490
      f-1     :     0.025743
      f+2     :     0.059022
      f-2     :     0.026595
      f+3     :     0.032993
      f-3     :     0.048990
  9 Cls       :     5.726924  s :     5.726924
      pz      :     3.853550  p :    11.373923
      px      :     3.731514
      py      :     3.788858
      dz2     :     0.014278  d :     0.081949
      dxz     :     0.015569
      dyz     :     0.009300
      dx2y2   :     0.025264
      dxy     :     0.017538
      f0      :     0.000651  f :     0.005384
      f+1     :     0.000834
      f-1     :     0.000456
      f+2     :     0.000700
      f-2     :     0.000593
      f+3     :     0.000916
      f-3     :     0.001234
 10 Cls       :     5.720329  s :     5.720329
      pz      :     3.750284  p :    11.363262
      px      :     3.857601
      py      :     3.755377
      dz2     :     0.015879  d :     0.089290
      dxz     :     0.010796
      dyz     :     0.025915
      dx2y2   :     0.026225
      dxy     :     0.010475
      f0      :     0.000925  f :     0.005675
      f+1     :     0.000519
      f-1     :     0.000662
      f+2     :     0.001429
      f-2     :     0.000530
      f+3     :     0.000534
      f-3     :     0.001075
 11 Cls       :     5.740518  s :     5.740518
      pz      :     3.775272  p :    11.389760
      px      :     3.762820
      py      :     3.851668
      dz2     :     0.019098  d :     0.076781
      dxz     :     0.027990
      dyz     :     0.009720
      dx2y2   :     0.010748
      dxy     :     0.009225
      f0      :     0.000590  f :     0.004990
      f+1     :     0.001682
      f-1     :     0.000455
      f+2     :     0.000906
      f-2     :     0.000514
      f+3     :     0.000434
      f-3     :     0.000410


                      *****************************
                      * MAYER POPULATION ANALYSIS *
                      *****************************

  NA   - Mulliken gross atomic population
  ZA   - Total nuclear charge
  QA   - Mulliken gross atomic charge
  VA   - Mayer's total valence
  BVA  - Mayer's bonded valence
  FA   - Mayer's free valence

  ATOM       NA         ZA         QA         VA         BVA        FA
  0 C      6.2883     6.0000    -0.2883     3.8495     3.7310     0.1185
  1 N      7.2800     7.0000    -0.2800     3.5204     3.3838     0.1366
  2 H      0.7262     1.0000     0.2738     0.9642     0.9477     0.0166
  3 H      0.7088     1.0000     0.2912     0.9158     0.8978     0.0180
  4 H      0.6794     1.0000     0.3206     0.9520     0.9315     0.0205
  5 H      0.8517     1.0000     0.1483     0.9613     0.9428     0.0185
  6 H      0.7844     1.0000     0.2156     0.9769     0.9582     0.0187
  7 H      0.8316     1.0000     0.1684     0.9643     0.9461     0.0183
  8 Pb    21.2421    22.0000     0.7579     2.3233     1.9484     0.3750
  9 Cl    17.5299    17.0000    -0.5299     1.0224     0.7604     0.2619
 10 Cl    17.5429    17.0000    -0.5429     0.9979     0.7364     0.2615
 11 Cl    17.5346    17.0000    -0.5346     1.0171     0.7544     0.2627

  Mayer bond orders larger than 0.1
B(  0-C ,  1-N ) :   0.8502 B(  0-C ,  5-H ) :   0.9443 B(  0-C ,  6-H ) :   0.9293 
B(  0-C ,  7-H ) :   0.9471 B(  1-N ,  2-H ) :   0.8907 B(  1-N ,  3-H ) :   0.8829 
B(  1-N ,  4-H ) :   0.7718 B(  4-H , 10-Cl) :   0.1418 B(  8-Pb,  9-Cl) :   0.6666 
B(  8-Pb, 10-Cl) :   0.5595 B(  8-Pb, 11-Cl) :   0.6956 


                *******************************************
                * RELAXED MP2 DENSITY POPULATION ANALYSIS *
                *******************************************

------------------------------------------------------------------------------
                           ORCA POPULATION ANALYSIS
------------------------------------------------------------------------------
Input electron density              ... PbMACl3_mp2_md_20.orca.pmp2re
BaseName (.gbw .S,...)              ... PbMACl3_mp2_md_20.orca

                    ********************************
                    * MULLIKEN POPULATION ANALYSIS *
                    ********************************

-----------------------
MULLIKEN ATOMIC CHARGES
-----------------------
   0 C :   -0.305663
   1 N :   -0.276447
   2 H :    0.272636
   3 H :    0.289728
   4 H :    0.312764
   5 H :    0.151767
   6 H :    0.216090
   7 H :    0.171117
   8 Pb:    0.704336
   9 Cl:   -0.506363
  10 Cl:   -0.519302
  11 Cl:   -0.510663
Sum of atomic charges:   -0.0000000

--------------------------------
MULLIKEN REDUCED ORBITAL CHARGES
--------------------------------
  0 C s       :     3.281526  s :     3.281526
      pz      :     0.774439  p :     2.949166
      px      :     1.090932
      py      :     1.083794
      dz2     :     0.016715  d :     0.068124
      dxz     :     0.011758
      dyz     :     0.016374
      dx2y2   :     0.015550
      dxy     :     0.007727
      f0      :     0.001371  f :     0.006847
      f+1     :     0.001124
      f-1     :     0.001842
      f+2     :     0.000638
      f-2     :     0.000637
      f+3     :     0.000963
      f-3     :     0.000272
  1 N s       :     3.424249  s :     3.424249
      pz      :     1.248119  p :     3.795277
      px      :     1.312527
      py      :     1.234631
      dz2     :     0.012446  d :     0.053624
      dxz     :     0.015728
      dyz     :     0.009140
      dx2y2   :     0.008286
      dxy     :     0.008025
      f0      :     0.000663  f :     0.003297
      f+1     :     0.000367
      f-1     :     0.000524
      f+2     :     0.000425
      f-2     :     0.000553
      f+3     :     0.000460
      f-3     :     0.000304
  2 H s       :     0.686225  s :     0.686225
      pz      :     0.012613  p :     0.041139
      px      :     0.014647
      py      :     0.013879
  3 H s       :     0.676582  s :     0.676582
      pz      :     0.006864  p :     0.033690
      px      :     0.008293
      py      :     0.018533
  4 H s       :     0.646427  s :     0.646427
      pz      :     0.014521  p :     0.040809
      px      :     0.020213
      py      :     0.006075
  5 H s       :     0.825168  s :     0.825168
      pz      :     0.004234  p :     0.023065
      px      :     0.014136
      py      :     0.004695
  6 H s       :     0.759572  s :     0.759572
      pz      :     0.003547  p :     0.024339
      px      :     0.006186
      py      :     0.014607
  7 H s       :     0.806328  s :     0.806328
      pz      :     0.009770  p :     0.022556
      px      :     0.006681
      py      :     0.006104
  8 Pbs       :     3.939244  s :     3.939244
      pz      :     2.384460  p :     7.100906
      px      :     2.363839
      py      :     2.352607
      dz2     :     2.026347  d :    10.145648
      dxz     :     2.032396
      dyz     :     2.029087
      dx2y2   :     2.030658
      dxy     :     2.027160
      f0      :     0.014369  f :     0.109867
      f+1     :     0.017342
      f-1     :     0.013087
      f+2     :     0.019305
      f-2     :     0.013371
      f+3     :     0.015366
      f-3     :     0.017027
  9 Cls       :     5.945938  s :     5.945938
      pz      :     3.904597  p :    11.496690
      px      :     3.758033
      py      :     3.834061
      dz2     :     0.010598  d :     0.059978
      dxz     :     0.011956
      dyz     :     0.008944
      dx2y2   :     0.015209
      dxy     :     0.013271
      f0      :     0.000489  f :     0.003757
      f+1     :     0.000567
      f-1     :     0.000424
      f+2     :     0.000496
      f-2     :     0.000487
      f+3     :     0.000616
      f-3     :     0.000678
 10 Cls       :     5.948773  s :     5.948773
      pz      :     3.804324  p :    11.502937
      px      :     3.914445
      py      :     3.784168
      dz2     :     0.013739  d :     0.063773
      dxz     :     0.010391
      dyz     :     0.015417
      dx2y2   :     0.014139
      dxy     :     0.010087
      f0      :     0.000553  f :     0.003818
      f+1     :     0.000462
      f-1     :     0.000558
      f+2     :     0.000684
      f-2     :     0.000491
      f+3     :     0.000500
      f-3     :     0.000570
 11 Cls       :     5.947088  s :     5.947088
      pz      :     3.806789  p :    11.502294
      px      :     3.797854
      py      :     3.897651
      dz2     :     0.012979  d :     0.057646
      dxz     :     0.015754
      dyz     :     0.009750
      dx2y2   :     0.009817
      dxy     :     0.009346
      f0      :     0.000527  f :     0.003636
      f+1     :     0.000755
      f-1     :     0.000444
      f+2     :     0.000582
      f-2     :     0.000505
      f+3     :     0.000413
      f-3     :     0.000410


                     *******************************
                     * LOEWDIN POPULATION ANALYSIS *
                     *******************************

----------------------
LOEWDIN ATOMIC CHARGES
----------------------
   0 C :   -0.278576
   1 N :    0.127084
   2 H :    0.145879
   3 H :    0.209068
   4 H :    0.189171
   5 H :    0.125356
   6 H :    0.131658
   7 H :    0.129788
   8 Pb:   -0.239473
   9 Cl:   -0.175523
  10 Cl:   -0.166340
  11 Cl:   -0.198093

-------------------------------
LOEWDIN REDUCED ORBITAL CHARGES
-------------------------------
  0 C s       :     2.860496  s :     2.860496
      pz      :     0.891003  p :     3.092479
      px      :     1.109539
      py      :     1.091937
      dz2     :     0.086118  d :     0.289436
      dxz     :     0.053196
      dyz     :     0.071086
      dx2y2   :     0.053161
      dxy     :     0.025874
      f0      :     0.007581  f :     0.036166
      f+1     :     0.006900
      f-1     :     0.008850
      f+2     :     0.003206
      f-2     :     0.005025
      f+3     :     0.003640
      f-3     :     0.000966
  1 N s       :     2.975840  s :     2.975840
      pz      :     1.259777  p :     3.717660
      px      :     1.247235
      py      :     1.210648
      dz2     :     0.037442  d :     0.167710
      dxz     :     0.047804
      dyz     :     0.032433
      dx2y2   :     0.027374
      dxy     :     0.022657
      f0      :     0.002554  f :     0.011706
      f+1     :     0.001512
      f-1     :     0.001933
      f+2     :     0.001172
      f-2     :     0.002325
      f+3     :     0.001318
      f-3     :     0.000892
  2 H s       :     0.720504  s :     0.720504
      pz      :     0.041076  p :     0.133616
      px      :     0.048004
      py      :     0.044536
  3 H s       :     0.690623  s :     0.690623
      pz      :     0.020539  p :     0.100309
      px      :     0.025684
      py      :     0.054086
  4 H s       :     0.689934  s :     0.689934
      pz      :     0.039584  p :     0.120895
      px      :     0.065997
      py      :     0.015314
  5 H s       :     0.807146  s :     0.807146
      pz      :     0.012165  p :     0.067499
      px      :     0.040579
      py      :     0.014754
  6 H s       :     0.797516  s :     0.797516
      pz      :     0.010039  p :     0.070826
      px      :     0.017659
      py      :     0.043128
  7 H s       :     0.805313  s :     0.805313
      pz      :     0.026345  p :     0.064900
      px      :     0.019425
      py      :     0.019130
  8 Pbs       :     3.685784  s :     3.685784
      pz      :     2.536096  p :     7.581879
      px      :     2.542084
      py      :     2.503699
      dz2     :     2.116875  d :    10.698818
      dxz     :     2.155747
      dyz     :     2.141945
      dx2y2   :     2.157496
      dxy     :     2.126754
      f0      :     0.031403  f :     0.272991
      f+1     :     0.050018
      f-1     :     0.025437
      f+2     :     0.058608
      f-2     :     0.026284
      f+3     :     0.032623
      f-3     :     0.048619
  9 Cls       :     5.730119  s :     5.730119
      pz      :     3.848181  p :    11.356865
      px      :     3.727228
      py      :     3.781456
      dz2     :     0.014447  d :     0.083062
      dxz     :     0.015779
      dyz     :     0.009355
      dx2y2   :     0.025706
      dxy     :     0.017774
      f0      :     0.000658  f :     0.005477
      f+1     :     0.000853
      f-1     :     0.000460
      f+2     :     0.000705
      f-2     :     0.000602
      f+3     :     0.000929
      f-3     :     0.001269
 10 Cls       :     5.723545  s :     5.723545
      pz      :     3.742644  p :    11.346407
      px      :     3.853163
      py      :     3.750600
      dz2     :     0.016008  d :     0.090615
      dxz     :     0.010883
      dyz     :     0.026446
      dx2y2   :     0.026658
      dxy     :     0.010620
      f0      :     0.000941  f :     0.005772
      f+1     :     0.000521
      f-1     :     0.000673
      f+2     :     0.001467
      f-2     :     0.000538
      f+3     :     0.000542
      f-3     :     0.001090
 11 Cls       :     5.743651  s :     5.743651
      pz      :     3.770035  p :    11.371695
      px      :     3.756471
      py      :     3.845188
      dz2     :     0.019366  d :     0.077677
      dxz     :     0.028483
      dyz     :     0.009775
      dx2y2   :     0.010812
      dxy     :     0.009242
      f0      :     0.000596  f :     0.005070
      f+1     :     0.001718
      f-1     :     0.000458
      f+2     :     0.000928
      f-2     :     0.000520
      f+3     :     0.000438
      f-3     :     0.000411


                      *****************************
                      * MAYER POPULATION ANALYSIS *
                      *****************************

  NA   - Mulliken gross atomic population
  ZA   - Total nuclear charge
  QA   - Mulliken gross atomic charge
  VA   - Mayer's total valence
  BVA  - Mayer's bonded valence
  FA   - Mayer's free valence

  ATOM       NA         ZA         QA         VA         BVA        FA
  0 C      6.3057     6.0000    -0.3057     3.8488     3.7306     0.1182
  1 N      7.2764     7.0000    -0.2764     3.5246     3.3884     0.1362
  2 H      0.7274     1.0000     0.2726     0.9684     0.9520     0.0164
  3 H      0.7103     1.0000     0.2897     0.9162     0.8983     0.0180
  4 H      0.6872     1.0000     0.3128     0.9607     0.9404     0.0203
  5 H      0.8482     1.0000     0.1518     0.9604     0.9421     0.0184
  6 H      0.7839     1.0000     0.2161     0.9818     0.9632     0.0186
  7 H      0.8289     1.0000     0.1711     0.9636     0.9454     0.0182
  8 Pb    21.2957    22.0000     0.7043     2.4064     2.0373     0.3690
  9 Cl    17.5064    17.0000    -0.5064     1.0652     0.8048     0.2605
 10 Cl    17.5193    17.0000    -0.5193     1.0423     0.7822     0.2601
 11 Cl    17.5107    17.0000    -0.5107     1.0601     0.7990     0.2611

  Mayer bond orders larger than 0.1
B(  0-C ,  1-N ) :   0.8584 B(  0-C ,  5-H ) :   0.9410 B(  0-C ,  6-H ) :   0.9259 
B(  0-C ,  7-H ) :   0.9443 B(  1-N ,  2-H ) :   0.8880 B(  1-N ,  3-H ) :   0.8815 
B(  1-N ,  4-H ) :   0.7674 B(  4-H , 10-Cl) :   0.1532 B(  8-Pb,  9-Cl) :   0.6959 
B(  8-Pb, 10-Cl) :   0.5821 B(  8-Pb, 11-Cl) :   0.7289 


-------
TIMINGS
-------

Total time                :  479.993 sec
Integral trafo            :    2.086 sec (  0.4%)
I/O of integrals          :    0.109 sec (  0.0%)
K(i,j) Operators          :    5.562 sec (  1.2%)
T(i,j) pair energies      :    1.040 sec (  0.2%)
V-calculation             :    0.011 sec (  0.0%)
V**(-1/2)                 :    0.020 sec (  0.0%)
Gamma(ia|P)               :    5.156 sec (  1.1%)
Gamma-Trafo               :    0.730 sec (  0.2%)
D(virtual)                :    2.343 sec (  0.5%)
D(internal)               :    3.279 sec (  0.7%)
W(virtual)                :    4.680 sec (  1.0%)
W(internal)               :   12.410 sec (  2.6%)
L(virtual)                :    5.013 sec (  1.0%)
L(internal)               :    0.216 sec (  0.0%)
G(D)                      :   13.339 sec (  2.8%)
G(Z)                      :   13.590 sec (  2.8%)
Z-Vector Solution         :  306.643 sec ( 63.9%)
Z-Vector Solution         :  306.643 sec ( 63.9%)
3-Index Derivative 
+ Separable RIJ part      :    4.044 sec (  0.8%)
2-Index Derivative 
+ Separable RIJ part      :    0.026 sec (  0.0%)
Separable Gradient (COSX) :   97.287 sec ( 20.3%)


---------------------------------------
MP2 TOTAL ENERGY:    -1669.553006697 Eh
---------------------------------------

The final MP2 gradient
  0:   0.00294323   0.00050168  -0.00930910
  1:   0.08075530  -0.07581553  -0.08566731
  2:  -0.05811673   0.05529733   0.07434942
  3:  -0.00083698   0.00532354   0.00519587
  4:  -0.02475795   0.01421273  -0.00065753
  5:  -0.00497686   0.00569519  -0.01376708
  6:  -0.00179415  -0.00399801   0.00787364
  7:  -0.00289125  -0.00509473   0.01147849
  8:   0.03869906   0.05591202   0.03122082
  9:  -0.03230287  -0.00233546  -0.01297990
 10:  -0.00051537  -0.04077050   0.01412872
 11:   0.00372696  -0.00951830  -0.02122262

-----------------------------------
NORM OF THE MP2 GRADIENT:  0.205586
-----------------------------------

Entering the calculation of the dispersion correction...

Checking the input atom types...

Done


-------------------------------------------------------------------------------
                          DFT DISPERSION CORRECTION                            
                                                                               
                                DFTD3 V2.1  Rev 6                               
                          USING Becke-Johnson damping                          
-------------------------------------------------------------------------------
The B2PLYP functional is recognized
Active option DFTDOPT                   ...         4   

molecular C6(AA) [au] = 4863.358205 


            DFT-D V3
 parameters
 s6 scaling factor         :     0.6400 
 a1 scaling factor         :     0.3065 
 s8 scaling factor         :     0.9147 
 a2 scaling factor         :     5.0570 
 ad hoc parameters k1-k3   :    16.0000     1.3333    -4.0000 

 Edisp/kcal,au: -9.030330509618  -0.014390746147 
 E6   /kcal   :  -4.107022676 
 E8   /kcal   :  -4.923307834 
 % E8         :  54.519685944 

-------------------------   ----------------
Dispersion correction           -0.014390746
-------------------------   ----------------


-------------------------   --------------------
FINAL SINGLE POINT ENERGY     -1669.567397442973
-------------------------   --------------------


                            ***************************************
                            *     ORCA property calculations      *
                            ***************************************


  WARNING: The energy has been calculated at the MP2 level but the densities
           used in the property calculations are still SCF densities
           MP2 response densities have not been calculated 
           use %mp2 Density relaxed end
           or  %mp2 Density unrelaxed end

                                    ---------------------
                                    Active property flags
                                    ---------------------
   (+) Dipole Moment


------------------------------------------------------------------------------
                       ORCA ELECTRIC PROPERTIES CALCULATION
------------------------------------------------------------------------------

Dipole Moment Calculation                       ... on
Quadrupole Moment Calculation                   ... off
Polarizability Calculation                      ... off
GBWName                                         ... PbMACl3_mp2_md_20.orca.gbw
Electron density file                           ... PbMACl3_mp2_md_20.orca.scfp.tmp

-------------
DIPOLE MOMENT
-------------
                                X             Y             Z
Electronic contribution:    -42.41028     -61.05911     -55.68292
Nuclear contribution   :     44.15682      63.65153      56.79893
                        -----------------------------------------
Total Dipole Moment    :      1.74654       2.59242       1.11601
                        -----------------------------------------
Magnitude (a.u.)       :      3.31912
Magnitude (Debye)      :      8.43653


                         *** MP2 UNRELAXED DENSITY ***

------------------------------------------------------------------------------
                       ORCA ELECTRIC PROPERTIES CALCULATION
------------------------------------------------------------------------------

Dipole Moment Calculation                       ... on
Quadrupole Moment Calculation                   ... off
Polarizability Calculation                      ... off
GBWName                                         ... PbMACl3_mp2_md_20.orca.gbw
Electron density file                           ... PbMACl3_mp2_md_20.orca.pmp2ur

-------------
DIPOLE MOMENT
-------------
                                X             Y             Z
Electronic contribution:    -42.41306     -61.06470     -55.68269
Nuclear contribution   :     44.15682      63.65153      56.79893
                        -----------------------------------------
Total Dipole Moment    :      1.74376       2.58683       1.11624
                        -----------------------------------------
Magnitude (a.u.)       :      3.31336
Magnitude (Debye)      :      8.42190


                           *** MP2 RELAXED DENSITY ***

------------------------------------------------------------------------------
                       ORCA ELECTRIC PROPERTIES CALCULATION
------------------------------------------------------------------------------

Dipole Moment Calculation                       ... on
Quadrupole Moment Calculation                   ... off
Polarizability Calculation                      ... off
GBWName                                         ... PbMACl3_mp2_md_20.orca.gbw
Electron density file                           ... PbMACl3_mp2_md_20.orca.pmp2re

-------------
DIPOLE MOMENT
-------------
                                X             Y             Z
Electronic contribution:    -42.45193     -61.12095     -55.71930
Nuclear contribution   :     44.15682      63.65153      56.79893
                        -----------------------------------------
Total Dipole Moment    :      1.70488       2.53058       1.07964
                        -----------------------------------------
Magnitude (a.u.)       :      3.23668
Magnitude (Debye)      :      8.22699


Timings for individual modules:

Sum of individual times         ...      813.096 sec (=  13.552 min)
GTO integral calculation        ...        4.335 sec (=   0.072 min)   0.5 %
SCF iterations                  ...      327.623 sec (=   5.460 min)  40.3 %
MP2 module                      ...      481.138 sec (=   8.019 min)  59.2 %
                             ****ORCA TERMINATED NORMALLY****
TOTAL RUN TIME: 0 days 0 hours 13 minutes 34 seconds 612 msec
