
                                 *****************
                                 * O   R   C   A *
                                 *****************

           --- An Ab Initio, DFT and Semiempirical electronic structure package ---

                  #######################################################
                  #                        -***-                        #
                  #  Department of molecular theory and spectroscopy    #
                  #              Directorship: Frank Neese              #
                  # Max Planck Institute for Chemical Energy Conversion #
                  #                  D-45470 Muelheim/Ruhr              #
                  #                       Germany                       #
                  #                                                     #
                  #                  All rights reserved                #
                  #                        -***-                        #
                  #######################################################


                         Program Version 3.0.3 - RELEASE   -


 With contributions from (in alphabetic order):
   Ute Becker             : Parallelization
   Dmytro Bykov           : SCF Hessian
   Dmitry Ganyushin       : Spin-Orbit,Spin-Spin,Magnetic field MRCI
   Andreas Hansen         : Spin unrestricted coupled pair/coupled cluster methods
   Dimitrios Liakos       : Extrapolation schemes; parallel MDCI
   Robert Izsak           : Overlap fitted RIJCOSX, COSX-SCS-MP3
   Christian Kollmar      : KDIIS, OOCD, Brueckner-CCSD(T), CCSD density
   Simone Kossmann        : Meta GGA functionals, TD-DFT gradient, OOMP2, MP2 Hessian
   Taras Petrenko         : DFT Hessian,TD-DFT gradient, ASA and ECA modules, normal mode analysis, Resonance Raman, ABS, FL, XAS/XES, NRVS
   Christoph Reimann      : Effective Core Potentials
   Michael Roemelt        : Restricted open shell CIS
   Christoph Riplinger    : Improved optimizer, TS searches, QM/MM, DLPNO-CCSD
   Barbara Sandhoefer     : DKH picture change effects
   Igor Schapiro          : Molecular dynamics
   Kantharuban Sivalingam : CASSCF convergence, NEVPT2
   Boris Wezisla          : Elementary symmetry handling
   Frank Wennmohs         : Technical directorship


 We gratefully acknowledge several colleagues who have allowed us to
 interface, adapt or use parts of their codes:
   Stefan Grimme, W. Hujo, H. Kruse, T. Risthaus : VdW corrections, initial TS optimization,
                                                   DFT functionals, gCP
   Ed Valeev                                     : LibInt (2-el integral package), F12 methods
   Garnet Chan, S. Sharma, R. Olivares           : DMRG
   Ulf Ekstrom                                   : XCFun DFT Library
   Mihaly Kallay                                 : mrcc  (arbitrary order and MRCC methods)
   Andreas Klamt, Michael Diedenhofen            : otool_cosmo (COSMO solvation model)
   Frank Weinhold                                : gennbo (NPA and NBO analysis)
   Christopher J. Cramer and Donald G. Truhlar   : smd solvation model


 Your calculation uses the libint2 library for the computation of 2-el integrals
 For citations please refer to: http://libint.valeyev.net

 This ORCA versions uses:
   CBLAS   interface :  Fast vector & matrix operations
   LAPACKE interface :  Fast linear algebra routines
   SCALAPACK package :  Parallel linear algebra routines


Your calculation utilizes the basis: Ahlrichs-TZV
Cite in your paper:
H - Kr: A. Schaefer, H. Horn and R. Ahlrichs, J. Chem. Phys. 97, 2571 (1992).

The def2-TZV basis will be loaded
Cite in your paper:
 	F. Weigend, R. Ahlrichs, Phys. Chem. Chem. Phys. 2005, 7, 3297.

Your calculation utilizes the atom-pairwise dispersion correction
with the Becke-Johnson damping scheme (D3BJ)
Cite in your paper:
S.Grimme, S.Ehrlich, L.Goerigk, J Comput Chem, (2011), 32, 1456–1465 
S.Grimme, J.Antony, S.Ehrlich and H.Krieg, J.Chem.Phys., 132, (2010), 154104 
   

================================================================================
                                        WARNINGS
                       Please study these warnings very carefully!
================================================================================

WARNING: The RI method has been chosen with no auxiliary basis (AUX or GTOAUX in BASIS block)
        Standard TZV/J expansion basis used (GTOAUX=TZV_J)

Now building the actual basis set
cite the ECPs for Pb [SD(60,MDF)] as follows:
  B. Metz, H. Stoll, M. Dolg, J. Chem. Phys. 113, 2563 (2000).

ECP parameters for Pb [SD(60,MDF)] have been obtained from:
  pseudopotential library of the Stuttgart/Cologne group
  http://www.theochem.uni-stuttgart.de/pseudopotentials/

cite the ECP basis sets for Pb [DEF2-TZVP] as follows:
  F. Weigend, R. Ahlrichs; Phys. Chem. Chem. Phys. 7, 3297(2005).

ECP basis sets for Pb [DEF2-TZVP] have been obtained from:
  Turbomole basis set library
  ftp://ftp.chemie.uni-karlsruhe.de/pub/basen/



INFO   : the flag for use of LIBINT has been found!

================================================================================
                                       INPUT FILE
================================================================================
NAME = PbMACl3_mp2_md_7.orca
|  1> ! RIJCOSX RI-B2PLYP D3BJ def2-TZVP ECP{def2-TZVP} TIGHTSCF Grid5 FinalGrid6 SlowConv MORead
|  2> %method
|  3>  RunTyp Gradient
|  4>  end
|  5> %maxcore 1000
|  6> %moinp "previous.gbw"
|  7> *xyz 0 1
|  8> C -0.279328 -0.384649 -0.079983 
|  9> N -1.048630 -0.036056 -1.324620 
| 10> H -2.118620 -0.350815 -1.320720 
| 11> H -0.560575 -0.320617 -2.166160 
| 12> H -1.199600 0.863657 -1.397080 
| 13> H -0.432378 -1.373820 0.423337 
| 14> H -0.608116 0.165129 0.791476 
| 15> H 0.817980 -0.276366 -0.251427 
| 16> Pb -3.147950 -2.595970 -2.465570 
| 17> Cl -0.664799 -3.307300 -2.463930 
| 18> Cl -3.391660 -0.192978 -2.657970 
| 19> Cl -4.230100 -3.530730 -0.476244 
| 20> *
| 21> 
| 22>                          ****END OF INPUT****
================================================================================

                     *******************************
                     * Energy+Gradient Calculation *
                     *******************************

---------------------------------
CARTESIAN COORDINATES (ANGSTROEM)
---------------------------------
  C     -0.279328   -0.384649   -0.079983
  N     -1.048630   -0.036056   -1.324620
  H     -2.118620   -0.350815   -1.320720
  H     -0.560575   -0.320617   -2.166160
  H     -1.199600    0.863657   -1.397080
  H     -0.432378   -1.373820    0.423337
  H     -0.608116    0.165129    0.791476
  H      0.817980   -0.276366   -0.251427
  Pb    -3.147950   -2.595970   -2.465570
  Cl    -0.664799   -3.307300   -2.463930
  Cl    -3.391660   -0.192978   -2.657970
  Cl    -4.230100   -3.530730   -0.476244

----------------------------
CARTESIAN COORDINATES (A.U.)
----------------------------
  NO LB      ZA    FRAG    MASS        X           Y           Z
   0 C     6.0000    0    12.011         -0.527853421535955         -0.726881267686676         -0.151145965369423
   1 N     7.0000    0    14.007         -1.981623515813842         -0.068135965484665         -2.503169031514768
   2 H     1.0000    0     1.008         -4.003611581848242         -0.662944273671584         -2.495799099592475
   3 H     1.0000    0     1.008         -1.059333227522906         -0.605878323879430         -4.093449162254859
   4 H     1.0000    0     1.008         -2.266915470251933          1.632075203644026         -2.640098587178703
   5 H     1.0000    0     1.008         -0.817076006332603         -2.596143557303694          0.799990992355821
   6 H     1.0000    0     1.008         -1.149172697655656          0.312048586768282          1.495672881571456
   7 H     1.0000    0     1.008          1.545758183024905         -0.522256052727281         -0.475128172673419
   8 Pb   22.0000*   0   207.200  -5.948763383277404  -4.905672351875552  -4.659252064012221
   9 Cl   17.0000    0    35.453         -1.256288044104714         -6.249891242717756         -4.656152913152590
  10 Cl   17.0000    0    35.453         -6.409308539375353         -0.364675569871855         -5.022835372178670
  11 Cl   17.0000    0    35.453         -7.993730519100287         -6.672112752819781         -0.899970732923193
* core charge reduced due to ECP

--------------------------------
INTERNAL COORDINATES (ANGSTROEM)
--------------------------------
 C      0   0   0   0.000000     0.000     0.000
 N      1   0   0   1.504149     0.000     0.000
 H      2   1   0   1.115333   114.984     0.000
 H      2   1   3   1.013589   112.066   229.614
 H      2   1   3   0.915164   112.193   109.417
 H      1   2   3   1.120364   120.430    40.341
 H      1   2   3   1.081572   113.169   292.372
 H      1   2   3   1.115887   110.690   165.803
 Pb     3   2   1   2.722301   126.442   262.169
 Cl     9   3   2   2.583028    82.147    16.683
 Cl     3   2   1   1.853046   129.235   183.018
 Cl     9   3   2   2.449948    98.060   124.485

---------------------------
INTERNAL COORDINATES (A.U.)
---------------------------
 C      0   0   0   0.000000     0.000     0.000
 N      1   0   0   2.842429     0.000     0.000
 H      2   1   0   2.107673   114.984     0.000
 H      2   1   3   1.915405   112.066   229.614
 H      2   1   3   1.729410   112.193   109.417
 H      1   2   3   2.117180   120.430    40.341
 H      1   2   3   2.043875   113.169   292.372
 H      1   2   3   2.108720   110.690   165.803
 Pb     3   2   1   5.144403   126.442   262.169
 Cl     9   3   2   4.881215    82.147    16.683
 Cl     3   2   1   3.501750   129.235   183.018
 Cl     9   3   2   4.629730    98.060   124.485

---------------------
BASIS SET INFORMATION
---------------------
There are 5 groups of distinct atoms

 Group   1 Type C   : 11s6p2d1f contracted to 5s3p2d1f pattern {62111/411/11/1}
 Group   2 Type N   : 11s6p2d1f contracted to 5s3p2d1f pattern {62111/411/11/1}
 Group   3 Type H   : 5s1p contracted to 3s1p pattern {311/1}
 Group   4 Type Pb  : 10s9p8d2f contracted to 6s5p3d2f pattern {421111/33111/611/11}
 Group   5 Type Cl  : 14s9p3d1f contracted to 5s5p2d1f pattern {73211/51111/21/1}

Atom   0C    basis set group =>   1
Atom   1N    basis set group =>   2
Atom   2H    basis set group =>   3
Atom   3H    basis set group =>   3
Atom   4H    basis set group =>   3
Atom   5H    basis set group =>   3
Atom   6H    basis set group =>   3
Atom   7H    basis set group =>   3
Atom   8Pb   basis set group =>   4
Atom   9Cl   basis set group =>   5
Atom  10Cl   basis set group =>   5
Atom  11Cl   basis set group =>   5
-------------------------------
AUXILIARY BASIS SET INFORMATION
-------------------------------
There are 5 groups of distinct atoms

 Group   1 Type C   : 12s5p4d2f1g contracted to 6s4p3d1f1g pattern {711111/2111/211/2/1}
 Group   2 Type N   : 12s5p4d2f1g contracted to 6s4p3d1f1g pattern {711111/2111/211/2/1}
 Group   3 Type H   : 5s2p1d contracted to 3s1p1d pattern {311/2/1}
 Group   4 Type Pb  : 31s12p8d6f3g contracted to 31s12p8d6f3g pattern {1111111111111111111111111111111/111111111111/11111111/111111/111}
 Group   5 Type Cl  : 14s5p5d2f1g contracted to 8s4p3d1f1g pattern {71111111/2111/311/2/1}

Atom   0C    basis set group =>   1
Atom   1N    basis set group =>   2
Atom   2H    basis set group =>   3
Atom   3H    basis set group =>   3
Atom   4H    basis set group =>   3
Atom   5H    basis set group =>   3
Atom   6H    basis set group =>   3
Atom   7H    basis set group =>   3
Atom   8Pb   basis set group =>   4
Atom   9Cl   basis set group =>   5
Atom  10Cl   basis set group =>   5
Atom  11Cl   basis set group =>   5

-------------------------
ECP PARAMETER INFORMATION
-------------------------

 Group 1, Type Pb ECP SD(60,MDF) (replacing 60 core electrons, lmax=5)

Atom   8Pb   ECP group =>   1


------------------------------------------------------------------------------
                           ORCA GTO INTEGRAL CALCULATION
                           -- RI-GTO INTEGRALS CHOSEN --
------------------------------------------------------------------------------

                         BASIS SET STATISTICS AND STARTUP INFO

Gaussian basis set:
 # of primitive gaussian shells          ...  186
 # of primitive gaussian functions       ...  420
 # of contracted shells                  ...  101
 # of contracted basis functions         ...  259
 Highest angular momentum                ...    3
 Maximum contraction depth               ...    7
Auxiliary gaussian basis set:
 # of primitive gaussian shells          ...  237
 # of primitive gaussian functions       ...  643
 # of contracted shells                  ...  171
 # of contracted aux-basis functions     ...  493
 Highest angular momentum                ...    4
 Maximum contraction depth               ...    7
Ratio of auxiliary to basis functions    ...  1.90
Integral package used                  ... LIBINT
 One Electron integrals                  
   ECP integrals                         ... done
 Ordering auxiliary basis shells         ... done
 Integral threshhold             Thresh  ...  2.500e-11
 Primitive cut-off               TCut    ...  2.500e-12
 Pre-screening matrix                    ... done
 Shell pair data                         ... 
 Ordering of the shell pairs             ... done (   0.001 sec) 4346 of 5151 pairs
 Determination of significant pairs      ... done (   0.000 sec)
 Creation of shell pair data             ... done (   0.001 sec)
 Storage of shell pair data              ... done (   0.001 sec)
 Shell pair data done in (   0.003 sec)
 Computing two index integrals           ... done
 Cholesky decomposition of the V-matrix  ... done


Timings:
 Total evaluation time                   ...   0.585 sec (  0.010 min)
 One electron matrix time                ...   0.324 sec (  0.005 min) = 55.4%
 Schwartz matrix evaluation time         ...   0.217 sec (  0.004 min) = 37.1%
 Two index repulsion integral time       ...   0.007 sec (  0.000 min) =  1.3%
 Cholesky decomposition of V             ...   0.008 sec (  0.000 min) =  1.3%
 Three index repulsion integral time     ...   0.000 sec (  0.000 min) =  0.0%

-------------------------------------------------------------------------------
                                 ORCA SCF
-------------------------------------------------------------------------------

------------
SCF SETTINGS
------------
Hamiltonian:
 Density Functional     Method          .... DFT(GTOs)
 Exchange Functional    Exchange        .... B88
   X-Alpha parameter    XAlpha          ....  0.666667
   Becke's b parameter  XBeta           ....  0.004200
 Correlation Functional Correlation     .... LYP
 LDA part of GGA corr.  LDAOpt          .... VWN-3
 Gradients option       PostSCFGGA      .... off
 Hybrid DFT is turned on
   Fraction HF Exchange ScalHFX         ....  0.530000
   Scaling of DF-GGA-X  ScalDFX         ....  0.470000
   Scaling of DF-GGA-C  ScalDFC         ....  0.730000
   Scaling of DF-LDA-C  ScalLDAC        ....  0.730000
   Perturbative correction              ....  0.270000
 RI-approximation to the Coulomb term is turned on
   Number of auxiliary basis functions  .... 493
   RIJ-COSX (HFX calculated with COS-X)).... on


General Settings:
 Integral files         IntName         .... PbMACl3_mp2_md_7.orca
 Hartree-Fock type      HFTyp           .... RHF
 Total Charge           Charge          ....    0
 Multiplicity           Mult            ....    1
 Number of Electrons    NEL             ....   92
 Basis Dimension        Dim             ....  259
 Nuclear Repulsion      ENuc            ....    591.0013679076 Eh

Convergence Acceleration:
 DIIS                   CNVDIIS         .... on
   Start iteration      DIISMaxIt       ....     0
   Startup error        DIISStart       ....  0.200000
   # of expansion vecs  DIISMaxEq       ....     5
   Bias factor          DIISBfac        ....   1.050
   Max. coefficient     DIISMaxC        ....  10.000
 Newton-Raphson         CNVNR           .... off
 SOSCF                  CNVSOSCF        .... on
   Start iteration      SOSCFMaxIt      ....   150
   Startup grad/error   SOSCFStart      ....  0.001000
 Level Shifting         CNVShift        .... on
   Level shift para.    LevelShift      ....    0.2500
   Turn off err/grad.   ShiftErr        ....    0.0000
 Zerner damping         CNVZerner       .... off
 Static damping         CNVDamp         .... on
   Fraction old density DampFac         ....    0.8500
   Max. Damping (<1)    DampMax         ....    0.9800
   Min. Damping (>=0)   DampMin         ....    0.0000
   Turn off err/grad.   DampErr         ....    0.0300
 Fernandez-Rico         CNVRico         .... off

SCF Procedure:
 Maximum # iterations   MaxIter         ....   125
 SCF integral mode      SCFMode         .... Direct
   Integral package                     .... LIBINT
 Reset frequeny         DirectResetFreq ....    20
 Integral Threshold     Thresh          ....  2.500e-11 Eh
 Primitive CutOff       TCut            ....  2.500e-12 Eh

Convergence Tolerance:
 Convergence Check Mode ConvCheckMode   .... Total+1el-Energy
 Energy Change          TolE            ....  1.000e-08 Eh
 1-El. energy change                    ....  1.000e-05 Eh
 Orbital Gradient       TolG            ....  1.000e-05
 Orbital Rotation angle TolX            ....  1.000e-05
 DIIS Error             TolErr          ....  5.000e-07


Diagonalization of the overlap matrix:
Smallest eigenvalue                        ... 1.361e-03
Time for diagonalization                   ...    0.017 sec
Threshold for overlap eigenvalues          ... 1.000e-08
Number of eigenvalues below threshold      ... 0
Time for construction of square roots      ...    0.008 sec
Total time needed                          ...    0.024 sec

---------------------
INITIAL GUESS: MOREAD
---------------------
Guess MOs are being read from file: previous.gbw
Input geometry compatible with but different from current geometry
Input basis set matches current basis set (good)
MOs were renormalized
MOs were reorthogonalized (Schmidt)
                      ------------------
                      INITIAL GUESS DONE (   0.1 sec)
                      ------------------
-------------------
DFT GRID GENERATION
-------------------

General Integration Accuracy     IntAcc      ...  5.010
Radial Grid Type                 RadialGrid  ... Gauss-Chebyshev
Angular Grid (max. acc.)         AngularGrid ... Lebedev-434
Angular grid pruning method      GridPruning ... 3 (G Style)
Weight generation scheme         WeightScheme... Becke
Basis function cutoff            BFCut       ...    1.0000e-11
Integration weight cutoff        WCut        ...    1.0000e-14
Grids for H and He will be reduced by one unit

# of grid points (after initial pruning)     ... 115882 (   0.0 sec)
# of grid points (after weights+screening)   ... 108880 (   0.3 sec)
nearest neighbour list constructed           ...    0.0 sec
Grid point re-assignment to atoms done       ...    0.0 sec
Grid point division into batches done        ...    1.0 sec
Reduced shell lists constructed in    2.5 sec

Total number of grid points                  ...   108880
Total number of batches                      ...     1708
Average number of points per batch           ...       63
Average number of grid points per atom       ...     9073
Average number of shells per batch           ...    53.56 (53.03%)
Average number of basis functions per batch  ...   140.72 (54.33%)
Average number of large shells per batch     ...    40.19 (75.03%)
Average number of large basis fcns per batch ...   103.19 (73.34%)
Maximum spatial batch extension              ...  30.52, 34.71, 32.24 au
Average spatial batch extension              ...   2.39,  2.39,  2.49 au

Time for grid setup =    2.834 sec

--------------------
COSX GRID GENERATION
--------------------

General Integration Accuracy     IntAcc      ...  3.340
Radial Grid Type                 RadialGrid  ... Gauss-Chebyshev
Angular Grid (max. acc.)         AngularGrid ... Lebedev-50
Angular grid pruning method      GridPruning ... 3 (G Style)
Weight generation scheme         WeightScheme... Becke
Basis function cutoff            BFCut       ...    1.0000e-11
Integration weight cutoff        WCut        ...    1.0000e-14
Grids for H and He will be reduced by one unit

# of grid points (after initial pruning)     ...   6578 (   0.0 sec)
# of grid points (after weights+screening)   ...   6262 (   0.0 sec)
nearest neighbour list constructed           ...    0.0 sec
Grid point re-assignment to atoms done       ...    0.0 sec
Grid point division into batches done        ...    0.0 sec
Reduced shell lists constructed in    0.1 sec

Total number of grid points                  ...     6262
Total number of batches                      ...      103
Average number of points per batch           ...       60
Average number of grid points per atom       ...      522
Average number of shells per batch           ...    65.08 (64.43%)
Average number of basis functions per batch  ...   173.85 (67.12%)
Average number of large shells per batch     ...    50.35 (77.36%)
Average number of large basis fcns per batch ...   131.71 (75.76%)
Maximum spatial batch extension              ...  26.58, 27.91, 29.32 au
Average spatial batch extension              ...   5.88,  6.00,  6.43 au

Overlap Fitting                  UseSFitting ... on
Constructing numerical overlap ... done (      0.1 sec)
Inverting numerical overlap    ... done (      0.0 sec)
Obtaining analytic overlap     ... done (      0.0 sec)
Final contraction and storage  ... done (      0.0 sec)


General Integration Accuracy     IntAcc      ...  3.670
Radial Grid Type                 RadialGrid  ... Gauss-Chebyshev
Angular Grid (max. acc.)         AngularGrid ... Lebedev-50
Angular grid pruning method      GridPruning ... 3 (G Style)
Weight generation scheme         WeightScheme... Becke
Basis function cutoff            BFCut       ...    1.0000e-11
Integration weight cutoff        WCut        ...    1.0000e-14
Grids for H and He will be reduced by one unit

# of grid points (after initial pruning)     ...   8124 (   0.0 sec)
# of grid points (after weights+screening)   ...   7717 (   0.0 sec)
nearest neighbour list constructed           ...    0.0 sec
Grid point re-assignment to atoms done       ...    0.0 sec
Grid point division into batches done        ...    0.0 sec
Reduced shell lists constructed in    0.1 sec

Total number of grid points                  ...     7717
Total number of batches                      ...      127
Average number of points per batch           ...       60
Average number of grid points per atom       ...      643
Average number of shells per batch           ...    63.95 (63.31%)
Average number of basis functions per batch  ...   170.57 (65.86%)
Average number of large shells per batch     ...    49.26 (77.03%)
Average number of large basis fcns per batch ...   128.37 (75.26%)
Maximum spatial batch extension              ...  35.72, 27.79, 30.51 au
Average spatial batch extension              ...   5.85,  5.79,  5.93 au

Overlap Fitting                  UseSFitting ... on
Constructing numerical overlap ... done (      0.1 sec)
Inverting numerical overlap    ... done (      0.0 sec)
Obtaining analytic overlap     ... done (      0.0 sec)
Final contraction and storage  ... done (      0.0 sec)


General Integration Accuracy     IntAcc      ...  4.010
Radial Grid Type                 RadialGrid  ... Gauss-Chebyshev
Angular Grid (max. acc.)         AngularGrid ... Lebedev-110
Angular grid pruning method      GridPruning ... 3 (G Style)
Weight generation scheme         WeightScheme... Becke
Basis function cutoff            BFCut       ...    1.0000e-11
Integration weight cutoff        WCut        ...    1.0000e-14
Grids for H and He will be reduced by one unit

# of grid points (after initial pruning)     ...  15170 (   0.0 sec)
# of grid points (after weights+screening)   ...  14477 (   0.0 sec)
nearest neighbour list constructed           ...    0.0 sec
Grid point re-assignment to atoms done       ...    0.0 sec
Grid point division into batches done        ...    0.0 sec
Reduced shell lists constructed in    0.2 sec

Total number of grid points                  ...    14477
Total number of batches                      ...      232
Average number of points per batch           ...       62
Average number of grid points per atom       ...     1206
Average number of shells per batch           ...    60.80 (60.20%)
Average number of basis functions per batch  ...   161.58 (62.39%)
Average number of large shells per batch     ...    46.32 (76.18%)
Average number of large basis fcns per batch ...   121.05 (74.92%)
Maximum spatial batch extension              ...  30.29, 34.29, 34.29 au
Average spatial batch extension              ...   4.84,  4.78,  5.12 au

Overlap Fitting                  UseSFitting ... on
Constructing numerical overlap ... done (      0.2 sec)
Inverting numerical overlap    ... done (      0.0 sec)
Obtaining analytic overlap     ... done (      0.0 sec)
Final contraction and storage  ... done (      0.0 sec)

Time for X-Grid setup             =    1.017 sec
--------------
SCF ITERATIONS
--------------
ITER       Energy         Delta-E        Max-DP      RMS-DP      [F,P]     Damp
               ***  Starting incremental Fock matrix formation  ***
  0  -1664.2343303571   0.000000000000 0.07497048  0.00181057  0.4321132 0.8500
  1  -1664.8952766910  -0.660946333909 0.07846339  0.00168470  0.3604287 0.8500
                               ***Turning on DIIS***
  2  -1665.4644755780  -0.569198887021 0.06697918  0.00145286  0.3045667 0.8500
  3  -1665.9491571477  -0.484681569713 0.05571157  0.00123426  0.2661612 0.8500
  4  -1666.3675201419  -0.418362994181 0.04728598  0.00106683  0.2314069 0.8500
  5  -1666.7275775909  -0.360057448987 0.04036805  0.00092862  0.1997617 0.8500
  6  -1667.0396619722  -0.312084381314 0.03481974  0.00080447  0.1714422 0.8500
  7  -1667.3109383904  -0.271276418183 0.03007880  0.00069291  0.1466270 0.8500
  8  -1667.5465422864  -0.235603896053 0.02602745  0.00059317  0.1252570 0.8500
  9  -1667.7498735941  -0.203331307683 0.02225489  0.00050577  0.1069384 0.8500
 10  -1667.9247489960  -0.174875401894 0.01887215  0.00043084  0.0912486 0.8500
 11  -1668.0749234349  -0.150174438930 0.01599800  0.00036713  0.0778263 0.8500
 12  -1668.2037461092  -0.128822674230 0.01359840  0.00031295  0.0664497 0.8500
 13  -1668.3141235362  -0.110377427005 0.01158276  0.00026668  0.0567936 0.8500
 14  -1668.4085754649  -0.094451928724 0.00986329  0.00022712  0.0485076 0.8500
 15  -1668.4893094345  -0.080733969603 0.00838933  0.00019337  0.0414064 0.8500
 16  -1668.5582581044  -0.068948669867 0.00713230  0.00016463  0.0353282 0.8500
 17  -1668.6171014845  -0.058843380132 0.00606572  0.00014018  0.0301307 0.8500
 18  -1668.6672914332  -0.050189948694 0.03440932  0.00079581  0.0256895 0.0000
                      *** Initiating the SOSCF procedure ***
                           *** Shutting down DIIS ***
                      *** Re-Reading the Fockian *** 
                      *** Removing any level shift *** 
ITER      Energy       Delta-E        Grad      Rot      Max-DP    RMS-DP
 19  -1668.95475268  -0.2874612441  0.000225  0.000225  0.000346  0.000010
               *** Restarting incremental Fock matrix formation ***
 20  -1668.95478322  -0.0000305396  0.000108  0.000444  0.000318  0.000009
 21  -1668.95478385  -0.0000006381  0.000084  0.000203  0.000144  0.000004
 22  -1668.95478415  -0.0000002927  0.000013  0.000031  0.000047  0.000001
 23  -1668.95478416  -0.0000000129  0.000004  0.000021  0.000029  0.000000
                  ***Gradient check signals convergence***
              ***Rediagonalizing the Fockian in SOSCF/NRSCF***

               *****************************************************
               *                     SUCCESS                       *
               *           SCF CONVERGED AFTER  24 CYCLES          *
               *****************************************************

Old exchange energy                            =    -59.226803388 Eh
New exchange energy                            =    -59.229467951 Eh
Exchange energy change after final integration =     -0.002664563 Eh
Total energy after final integration           =  -1668.957448728 Eh
Final COS-X integration done in                =    26.054 sec

----------------
TOTAL SCF ENERGY
----------------

Total Energy       :        -1668.95744873 Eh          -45414.64102 eV

Components:
Nuclear Repulsion  :          591.00136791 Eh           16081.96481 eV
Electronic Energy  :        -2259.95881664 Eh          -61496.60583 eV

One Electron Energy:        -3552.74050344 Eh          -96674.98396 eV
Two Electron Energy:         1292.78168680 Eh           35178.37813 eV

Virial components:
Potential Energy   :        -3206.97552096 Eh          -87266.24046 eV
Kinetic Energy     :         1538.01807223 Eh           41851.59944 eV
Virial Ratio       :            2.08513514


DFT components:
N(Alpha)           :       45.999992789423 electrons
N(Beta)            :       45.999992789423 electrons
N(Total)           :       91.999985578846 electrons
E(X)               :      -52.601037540065 Eh       
E(C)               :       -2.609066611975 Eh       
E(XC)              :      -55.210104152040 Eh       

---------------
SCF CONVERGENCE
---------------

  Last Energy change         ...   -4.4447e-09  Tolerance :   1.0000e-08
  Last MAX-Density change    ...    6.6336e-14  Tolerance :   1.0000e-07
  Last RMS-Density change    ...    4.2391e-16  Tolerance :   5.0000e-09
  Last Orbital Gradient      ...    2.0418e-06  Tolerance :   1.0000e-05
  Last Orbital Rotation      ...    5.2218e-06  Tolerance :   1.0000e-05

             **** THE GBW FILE WAS UPDATED (PbMACl3_mp2_md_7.orca.gbw) ****
             **** DENSITY FILE WAS UPDATED (PbMACl3_mp2_md_7.orca.scfp.tmp) ****
             **** ENERGY FILE WAS UPDATED (PbMACl3_mp2_md_7.orca.en.tmp) ****
----------------
ORBITAL ENERGIES
----------------

  NO   OCC          E(Eh)            E(eV) 
   0   2.0000    -102.880727     -2799.5269 
   1   2.0000    -102.833989     -2798.2551 
   2   2.0000    -102.833463     -2798.2408 
   3   2.0000     -14.993507      -407.9941 
   4   2.0000     -10.725561      -291.8574 
   5   2.0000      -9.891394      -269.1585 
   6   2.0000      -9.841638      -267.8046 
   7   2.0000      -9.840411      -267.7712 
   8   2.0000      -7.527939      -204.8456 
   9   2.0000      -7.526773      -204.8139 
  10   2.0000      -7.526067      -204.7947 
  11   2.0000      -7.478756      -203.5073 
  12   2.0000      -7.477384      -203.4700 
  13   2.0000      -7.476787      -203.4537 
  14   2.0000      -7.476640      -203.4497 
  15   2.0000      -7.475794      -203.4267 
  16   2.0000      -7.475607      -203.4216 
  17   2.0000      -5.780064      -157.2835 
  18   2.0000      -3.552869       -96.6785 
  19   2.0000      -3.550450       -96.6127 
  20   2.0000      -3.549194       -96.5785 
  21   2.0000      -1.185916       -32.2704 
  22   2.0000      -0.972074       -26.4515 
  23   2.0000      -0.953394       -25.9432 
  24   2.0000      -0.946674       -25.7603 
  25   2.0000      -0.942029       -25.6339 
  26   2.0000      -0.939734       -25.5715 
  27   2.0000      -0.907054       -24.6822 
  28   2.0000      -0.877078       -23.8665 
  29   2.0000      -0.854024       -23.2392 
  30   2.0000      -0.842110       -22.9150 
  31   2.0000      -0.727442       -19.7947 
  32   2.0000      -0.689211       -18.7544 
  33   2.0000      -0.633986       -17.2516 
  34   2.0000      -0.553217       -15.0538 
  35   2.0000      -0.544738       -14.8231 
  36   2.0000      -0.502214       -13.6659 
  37   2.0000      -0.405261       -11.0277 
  38   2.0000      -0.395969       -10.7749 
  39   2.0000      -0.388495       -10.5715 
  40   2.0000      -0.359763        -9.7897 
  41   2.0000      -0.339938        -9.2502 
  42   2.0000      -0.333475        -9.0743 
  43   2.0000      -0.329520        -8.9667 
  44   2.0000      -0.323679        -8.8078 
  45   2.0000      -0.257088        -6.9957 
  46   0.0000      -0.013740        -0.3739 
  47   0.0000       0.014969         0.4073 
  48   0.0000       0.048156         1.3104 
  49   0.0000       0.049003         1.3334 
  50   0.0000       0.067478         1.8362 
  51   0.0000       0.075560         2.0561 
  52   0.0000       0.087949         2.3932 
  53   0.0000       0.110913         3.0181 
  54   0.0000       0.125341         3.4107 
  55   0.0000       0.130659         3.5554 
  56   0.0000       0.147586         4.0160 
  57   0.0000       0.161225         4.3871 
  58   0.0000       0.167582         4.5601 
  59   0.0000       0.204761         5.5718 
  60   0.0000       0.224226         6.1015 
  61   0.0000       0.244621         6.6565 
  62   0.0000       0.254490         6.9250 
  63   0.0000       0.266609         7.2548 
  64   0.0000       0.277978         7.5642 
  65   0.0000       0.281325         7.6552 
  66   0.0000       0.304026         8.2730 
  67   0.0000       0.309085         8.4106 
  68   0.0000       0.310122         8.4389 
  69   0.0000       0.370440        10.0802 
  70   0.0000       0.387241        10.5374 
  71   0.0000       0.391630        10.6568 
  72   0.0000       0.415674        11.3111 
  73   0.0000       0.423695        11.5293 
  74   0.0000       0.425503        11.5785 
  75   0.0000       0.440439        11.9850 
  76   0.0000       0.447342        12.1728 
  77   0.0000       0.458454        12.4752 
  78   0.0000       0.463578        12.6146 
  79   0.0000       0.472421        12.8552 
  80   0.0000       0.481304        13.0970 
  81   0.0000       0.488946        13.3049 
  82   0.0000       0.495045        13.4709 
  83   0.0000       0.502925        13.6853 
  84   0.0000       0.513308        13.9678 
  85   0.0000       0.514828        14.0092 
  86   0.0000       0.523227        14.2377 
  87   0.0000       0.531457        14.4617 
  88   0.0000       0.549063        14.9408 
  89   0.0000       0.568388        15.4666 
  90   0.0000       0.575842        15.6695 
  91   0.0000       0.579104        15.7582 
  92   0.0000       0.595045        16.1920 
  93   0.0000       0.608779        16.5657 
  94   0.0000       0.616443        16.7743 
  95   0.0000       0.634216        17.2579 
  96   0.0000       0.649728        17.6800 
  97   0.0000       0.652057        17.7434 
  98   0.0000       0.659882        17.9563 
  99   0.0000       0.683076        18.5874 
 100   0.0000       0.693041        18.8586 
 101   0.0000       0.720503        19.6059 
 102   0.0000       0.735964        20.0266 
 103   0.0000       0.771084        20.9823 
 104   0.0000       0.800938        21.7946 
 105   0.0000       0.822215        22.3736 
 106   0.0000       0.860537        23.4164 
 107   0.0000       0.872403        23.7393 
 108   0.0000       0.885910        24.1068 
 109   0.0000       0.907522        24.6949 
 110   0.0000       0.918221        24.9861 
 111   0.0000       0.929768        25.3003 
 112   0.0000       0.933705        25.4074 
 113   0.0000       0.943474        25.6732 
 114   0.0000       0.963053        26.2060 
 115   0.0000       0.966871        26.3099 
 116   0.0000       1.006424        27.3862 
 117   0.0000       1.019755        27.7490 
 118   0.0000       1.084495        29.5106 
 119   0.0000       1.096404        29.8347 
 120   0.0000       1.098857        29.9014 
 121   0.0000       1.112251        30.2659 
 122   0.0000       1.153511        31.3886 
 123   0.0000       1.185481        32.2586 
 124   0.0000       1.225719        33.3535 
 125   0.0000       1.263506        34.3818 
 126   0.0000       1.299219        35.3536 
 127   0.0000       1.318043        35.8658 
 128   0.0000       1.358178        36.9579 
 129   0.0000       1.368401        37.2361 
 130   0.0000       1.439667        39.1753 
 131   0.0000       1.509409        41.0731 
 132   0.0000       1.544024        42.0150 
 133   0.0000       1.584267        43.1101 
 134   0.0000       1.612398        43.8756 
 135   0.0000       1.644942        44.7612 
 136   0.0000       1.732594        47.1463 
 137   0.0000       1.786253        48.6064 
 138   0.0000       1.797995        48.9259 
 139   0.0000       1.848805        50.3085 
 140   0.0000       1.883604        51.2555 
 141   0.0000       1.898417        51.6586 
 142   0.0000       1.930959        52.5441 
 143   0.0000       1.937649        52.7261 
 144   0.0000       1.945664        52.9442 
 145   0.0000       1.947400        52.9914 
 146   0.0000       1.957620        53.2695 
 147   0.0000       1.964362        53.4530 
 148   0.0000       1.974415        53.7266 
 149   0.0000       1.985951        54.0405 
 150   0.0000       1.986791        54.0633 
 151   0.0000       2.022071        55.0233 
 152   0.0000       2.025077        55.1052 
 153   0.0000       2.033631        55.3379 
 154   0.0000       2.062520        56.1240 
 155   0.0000       2.063926        56.1623 
 156   0.0000       2.075608        56.4802 
 157   0.0000       2.078929        56.5705 
 158   0.0000       2.102803        57.2202 
 159   0.0000       2.122838        57.7654 
 160   0.0000       2.136337        58.1327 
 161   0.0000       2.147279        58.4304 
 162   0.0000       2.154566        58.6287 
 163   0.0000       2.162550        58.8460 
 164   0.0000       2.175660        59.2027 
 165   0.0000       2.183956        59.4285 
 166   0.0000       2.194498        59.7153 
 167   0.0000       2.213899        60.2433 
 168   0.0000       2.241206        60.9863 
 169   0.0000       2.253961        61.3334 
 170   0.0000       2.262681        61.5707 
 171   0.0000       2.264795        61.6282 
 172   0.0000       2.272870        61.8479 
 173   0.0000       2.274499        61.8923 
 174   0.0000       2.277893        61.9846 
 175   0.0000       2.284360        62.1606 
 176   0.0000       2.287207        62.2381 
 177   0.0000       2.294102        62.4257 
 178   0.0000       2.302076        62.6427 
 179   0.0000       2.313591        62.9560 
 180   0.0000       2.323231        63.2183 
 181   0.0000       2.353495        64.0419 
 182   0.0000       2.379080        64.7381 
 183   0.0000       2.386553        64.9414 
 184   0.0000       2.389208        65.0136 
 185   0.0000       2.395322        65.1800 
 186   0.0000       2.408623        65.5420 
 187   0.0000       2.423432        65.9449 
 188   0.0000       2.426349        66.0243 
 189   0.0000       2.436193        66.2922 
 190   0.0000       2.441361        66.4328 
 191   0.0000       2.449522        66.6549 
 192   0.0000       2.475915        67.3731 
 193   0.0000       2.481457        67.5239 
 194   0.0000       2.497162        67.9512 
 195   0.0000       2.503438        68.1220 
 196   0.0000       2.529365        68.8275 
 197   0.0000       2.556117        69.5555 
 198   0.0000       2.569489        69.9193 
 199   0.0000       2.610944        71.0474 
 200   0.0000       2.619572        71.2822 
 201   0.0000       2.649755        72.1035 
 202   0.0000       2.686566        73.1052 
 203   0.0000       2.705796        73.6285 
 204   0.0000       2.721176        74.0470 
 205   0.0000       2.774941        75.5100 
 206   0.0000       2.828648        76.9714 
 207   0.0000       2.872935        78.1765 
 208   0.0000       2.887594        78.5754 
 209   0.0000       2.912003        79.2396 
 210   0.0000       2.923028        79.5396 
 211   0.0000       3.000486        81.6474 
 212   0.0000       3.067197        83.4627 
 213   0.0000       3.144236        85.5590 
 214   0.0000       3.190715        86.8238 
 215   0.0000       3.234481        88.0147 
 216   0.0000       3.293443        89.6191 
 217   0.0000       3.361880        91.4814 
 218   0.0000       3.494663        95.0946 
 219   0.0000       3.512435        95.5782 
 220   0.0000       3.525341        95.9294 
 221   0.0000       3.595364        97.8348 
 222   0.0000       3.735180       101.6394 
 223   0.0000       3.788476       103.0897 
 224   0.0000       3.939708       107.2049 
 225   0.0000       4.124057       112.2213 
 226   0.0000       4.229780       115.0982 
 227   0.0000       4.346378       118.2710 
 228   0.0000       4.452865       121.1686 
 229   0.0000       4.774222       129.9132 
 230   0.0000       4.800088       130.6170 
 231   0.0000       4.884323       132.9092 
 232   0.0000       4.899511       133.3225 
 233   0.0000       4.987918       135.7282 
 234   0.0000       5.073978       138.0700 
 235   0.0000       5.166624       140.5910 
 236   0.0000       5.223622       142.1420 
 237   0.0000       5.380488       146.4105 
 238   0.0000       5.684579       154.6853 
 239   0.0000       5.991815       163.0456 
 240   0.0000      11.037930       300.3574 
 241   0.0000      11.068389       301.1862 
 242   0.0000      11.080948       301.5279 
 243   0.0000      11.088896       301.7442 
 244   0.0000      11.114343       302.4367 
 245   0.0000      11.137346       303.0626 
 246   0.0000      11.194069       304.6061 
 247   0.0000      11.212787       305.1155 
 248   0.0000      11.240215       305.8618 
 249   0.0000      22.546524       613.5221 
 250   0.0000      25.153892       684.4722 
 251   0.0000      25.257230       687.2842 
 252   0.0000      25.440911       692.2824 
 253   0.0000      32.359967       880.5595 
 254   0.0000      35.601829       968.7750 
 255   0.0000      35.810649       974.4573 
 256   0.0000      35.851006       975.5555 
 257   0.0000      35.928211       977.6563 
 258   0.0000     123.650898      3364.7120 

                    ********************************
                    * MULLIKEN POPULATION ANALYSIS *
                    ********************************

-----------------------
MULLIKEN ATOMIC CHARGES
-----------------------
   0 C :   -0.292086
   1 N :   -0.263672
   2 H :    0.313685
   3 H :    0.306794
   4 H :    0.239609
   5 H :    0.199391
   6 H :    0.161035
   7 H :    0.159973
   8 Pb:    0.802434
   9 Cl:   -0.581857
  10 Cl:   -0.523975
  11 Cl:   -0.521331
Sum of atomic charges:   -0.0000000

--------------------------------
MULLIKEN REDUCED ORBITAL CHARGES
--------------------------------
  0 C s       :     3.254942  s :     3.254942
      pz      :     0.831221  p :     2.964864
      px      :     0.985024
      py      :     1.148619
      dz2     :     0.014219  d :     0.066343
      dxz     :     0.012934
      dyz     :     0.019554
      dx2y2   :     0.015071
      dxy     :     0.004564
      f0      :     0.000989  f :     0.005938
      f+1     :     0.001493
      f-1     :     0.000724
      f+2     :     0.001234
      f-2     :     0.000798
      f+3     :     0.000493
      f-3     :     0.000206
  1 N s       :     3.409727  s :     3.409727
      pz      :     1.239587  p :     3.806372
      px      :     1.297285
      py      :     1.269499
      dz2     :     0.012867  d :     0.045341
      dxz     :     0.010515
      dyz     :     0.006611
      dx2y2   :     0.012348
      dxy     :     0.003001
      f0      :     0.000222  f :     0.002232
      f+1     :     0.000720
      f-1     :     0.000387
      f+2     :     0.000168
      f-2     :     0.000251
      f+3     :     0.000156
      f-3     :     0.000329
  2 H s       :     0.637713  s :     0.637713
      pz      :     0.008647  p :     0.048602
      px      :     0.033252
      py      :     0.006703
  3 H s       :     0.658261  s :     0.658261
      pz      :     0.017513  p :     0.034945
      px      :     0.009464
      py      :     0.007967
  4 H s       :     0.717388  s :     0.717388
      pz      :     0.008528  p :     0.043003
      px      :     0.010578
      py      :     0.023897
  5 H s       :     0.778393  s :     0.778393
      pz      :     0.005990  p :     0.022216
      px      :     0.003435
      py      :     0.012791
  6 H s       :     0.815973  s :     0.815973
      pz      :     0.011245  p :     0.022993
      px      :     0.004187
      py      :     0.007561
  7 H s       :     0.818464  s :     0.818464
      pz      :     0.002751  p :     0.021563
      px      :     0.014457
      py      :     0.004354
  8 Pbs       :     3.936671  s :     3.936671
      pz      :     2.409303  p :     7.029796
      px      :     2.327616
      py      :     2.292877
      dz2     :     2.033948  d :    10.158625
      dxz     :     2.035111
      dyz     :     2.025131
      dx2y2   :     2.034464
      dxy     :     2.029971
      f0      :     0.009894  f :     0.072474
      f+1     :     0.009547
      f-1     :     0.009442
      f+2     :     0.010267
      f-2     :     0.005754
      f+3     :     0.012652
      f-3     :     0.014917
  9 Cls       :     5.956395  s :     5.956395
      pz      :     3.935153  p :    11.609246
      px      :     3.777955
      py      :     3.896138
      dz2     :     0.002571  d :     0.015554
      dxz     :     0.002205
      dyz     :     0.000646
      dx2y2   :     0.006356
      dxy     :     0.003776
      f0      :     0.000059  f :     0.000662
      f+1     :     0.000146
      f-1     :     0.000028
      f+2     :     0.000051
      f-2     :     0.000031
      f+3     :     0.000166
      f-3     :     0.000181
 10 Cls       :     5.953579  s :     5.953579
      pz      :     3.858241  p :    11.537367
      px      :     3.908175
      py      :     3.770950
      dz2     :     0.004815  d :     0.031511
      dxz     :     0.005391
      dyz     :     0.004903
      dx2y2   :     0.011838
      dxy     :     0.004565
      f0      :     0.000108  f :     0.001518
      f+1     :     0.000194
      f-1     :     0.000225
      f+2     :     0.000303
      f-2     :     0.000079
      f+3     :     0.000252
      f-3     :     0.000357
 11 Cls       :     5.948278  s :     5.948278
      pz      :     3.821905  p :    11.551614
      px      :     3.862028
      py      :     3.867681
      dz2     :     0.005684  d :     0.020342
      dxz     :     0.005884
      dyz     :     0.005066
      dx2y2   :     0.001382
      dxy     :     0.002326
      f0      :     0.000159  f :     0.001097
      f+1     :     0.000267
      f-1     :     0.000216
      f+2     :     0.000129
      f-2     :     0.000241
      f+3     :     0.000041
      f-3     :     0.000044


                     *******************************
                     * LOEWDIN POPULATION ANALYSIS *
                     *******************************

----------------------
LOEWDIN ATOMIC CHARGES
----------------------
   0 C :   -0.289240
   1 N :    0.107243
   2 H :    0.178026
   3 H :    0.198727
   4 H :    0.134911
   5 H :    0.146548
   6 H :    0.122739
   7 H :    0.131609
   8 Pb:   -0.165562
   9 Cl:   -0.288786
  10 Cl:   -0.100749
  11 Cl:   -0.175465

-------------------------------
LOEWDIN REDUCED ORBITAL CHARGES
-------------------------------
  0 C s       :     2.856490  s :     2.856490
      pz      :     0.928564  p :     3.113410
      px      :     1.033671
      py      :     1.151175
      dz2     :     0.070177  d :     0.285920
      dxz     :     0.063998
      dyz     :     0.076396
      dx2y2   :     0.060345
      dxy     :     0.015004
      f0      :     0.006372  f :     0.033420
      f+1     :     0.007474
      f-1     :     0.004626
      f+2     :     0.004656
      f-2     :     0.006380
      f+3     :     0.002479
      f-3     :     0.001432
  1 N s       :     2.978368  s :     2.978368
      pz      :     1.230220  p :     3.744795
      px      :     1.256880
      py      :     1.257694
      dz2     :     0.045539  d :     0.159559
      dxz     :     0.036350
      dyz     :     0.023654
      dx2y2   :     0.040554
      dxy     :     0.013462
      f0      :     0.001200  f :     0.010036
      f+1     :     0.001771
      f-1     :     0.002018
      f+2     :     0.001263
      f-2     :     0.001382
      f+3     :     0.000882
      f-3     :     0.001521
  2 H s       :     0.677619  s :     0.677619
      pz      :     0.023703  p :     0.144355
      px      :     0.103409
      py      :     0.017243
  3 H s       :     0.695705  s :     0.695705
      pz      :     0.050282  p :     0.105568
      px      :     0.031717
      py      :     0.023569
  4 H s       :     0.730243  s :     0.730243
      pz      :     0.029584  p :     0.134846
      px      :     0.035196
      py      :     0.070066
  5 H s       :     0.791518  s :     0.791518
      pz      :     0.016200  p :     0.061934
      px      :     0.010613
      py      :     0.035121
  6 H s       :     0.810226  s :     0.810226
      pz      :     0.029875  p :     0.067034
      px      :     0.014143
      py      :     0.023016
  7 H s       :     0.808276  s :     0.808276
      pz      :     0.008807  p :     0.060114
      px      :     0.038130
      py      :     0.013177
  8 Pbs       :     3.693960  s :     3.693960
      pz      :     2.556242  p :     7.535614
      px      :     2.488708
      py      :     2.490664
      dz2     :     2.138483  d :    10.704588
      dxz     :     2.120836
      dyz     :     2.125246
      dx2y2   :     2.190304
      dxy     :     2.129719
      f0      :     0.024003  f :     0.231400
      f+1     :     0.033389
      f-1     :     0.035374
      f+2     :     0.026337
      f-2     :     0.019742
      f+3     :     0.037438
      f-3     :     0.055117
  9 Cls       :     5.776779  s :     5.776779
      pz      :     3.890002  p :    11.480707
      px      :     3.741422
      py      :     3.849283
      dz2     :     0.006165  d :     0.029757
      dxz     :     0.002295
      dyz     :     0.000565
      dx2y2   :     0.014799
      dxy     :     0.005934
      f0      :     0.000060  f :     0.001543
      f+1     :     0.000445
      f-1     :     0.000045
      f+2     :     0.000062
      f-2     :     0.000034
      f+3     :     0.000449
      f-3     :     0.000449
 10 Cls       :     5.693189  s :     5.693189
      pz      :     3.788137  p :    11.336427
      px      :     3.813388
      py      :     3.734902
      dz2     :     0.012066  d :     0.066972
      dxz     :     0.010021
      dyz     :     0.005153
      dx2y2   :     0.034475
      dxy     :     0.005258
      f0      :     0.000176  f :     0.004161
      f+1     :     0.000413
      f-1     :     0.000909
      f+2     :     0.000674
      f-2     :     0.000079
      f+3     :     0.000482
      f-3     :     0.001427
 11 Cls       :     5.730566  s :     5.730566
      pz      :     3.777930  p :    11.402873
      px      :     3.809211
      py      :     3.815731
      dz2     :     0.012774  d :     0.039500
      dxz     :     0.012642
      dyz     :     0.009848
      dx2y2   :     0.001168
      dxy     :     0.003070
      f0      :     0.000236  f :     0.002526
      f+1     :     0.000851
      f-1     :     0.000651
      f+2     :     0.000142
      f-2     :     0.000550
      f+3     :     0.000041
      f-3     :     0.000055


                      *****************************
                      * MAYER POPULATION ANALYSIS *
                      *****************************

  NA   - Mulliken gross atomic population
  ZA   - Total nuclear charge
  QA   - Mulliken gross atomic charge
  VA   - Mayer's total valence
  BVA  - Mayer's bonded valence
  FA   - Mayer's free valence

  ATOM       NA         ZA         QA         VA         BVA        FA
  0 C      6.2921     6.0000    -0.2921     3.8082     3.8082    -0.0000
  1 N      7.2637     7.0000    -0.2637     3.4539     3.4539     0.0000
  2 H      0.6863     1.0000     0.3137     0.9531     0.9531    -0.0000
  3 H      0.6932     1.0000     0.3068     0.9326     0.9326    -0.0000
  4 H      0.7604     1.0000     0.2396     0.9558     0.9558     0.0000
  5 H      0.8006     1.0000     0.1994     0.9623     0.9623    -0.0000
  6 H      0.8390     1.0000     0.1610     0.9539     0.9539    -0.0000
  7 H      0.8400     1.0000     0.1600     0.9642     0.9642    -0.0000
  8 Pb    21.1976    22.0000     0.8024     1.9711     1.9711     0.0000
  9 Cl    17.5819    17.0000    -0.5819     0.7155     0.7155     0.0000
 10 Cl    17.5240    17.0000    -0.5240     0.7991     0.7991     0.0000
 11 Cl    17.5213    17.0000    -0.5213     0.8198     0.8198    -0.0000

  Mayer bond orders larger than 0.1
B(  0-C ,  1-N ) :   0.8971 B(  0-C ,  5-H ) :   0.9579 B(  0-C ,  6-H ) :   0.9643 
B(  0-C ,  7-H ) :   0.9653 B(  1-N ,  2-H ) :   0.7355 B(  1-N ,  3-H ) :   0.8788 
B(  1-N ,  4-H ) :   0.9311 B(  2-H , 10-Cl) :   0.2175 B(  8-Pb,  9-Cl) :   0.6370 
B(  8-Pb, 10-Cl) :   0.5288 B(  8-Pb, 11-Cl) :   0.7953 

-------
TIMINGS
-------

Total SCF time: 0 days 0 hours 6 min 22 sec 

Total time                  ....     382.594 sec
Sum of individual times     ....     355.532 sec  ( 92.9%)

Fock matrix formation       ....     350.442 sec  ( 91.6%)
  Coulomb formation         ....     290.373 sec  ( 82.9% of F)
  Split-RI-J                ....      20.568 sec  (  5.9% of F)
  Chain of spheres X        ....     295.796 sec  ( 84.4% of F)
  COS-X 1 center corr.      ....       0.000 sec  (  0.0% of F)
  XC integration            ....      60.128 sec  ( 17.2% of F)
    Basis function eval.    ....      18.151 sec  ( 30.2% of XC)
    Density eval.           ....      16.153 sec  ( 26.9% of XC)
    XC-Functional eval.     ....       3.645 sec  (  6.1% of XC)
    XC-Potential eval.      ....      21.169 sec  ( 35.2% of XC)
Diagonalization             ....       0.665 sec  (  0.2%)
Density matrix formation    ....       0.055 sec  (  0.0%)
Population analysis         ....       0.072 sec  (  0.0%)
Initial guess               ....       0.143 sec  (  0.0%)
Orbital Transformation      ....       0.000 sec  (  0.0%)
Orbital Orthonormalization  ....       0.140 sec  (  0.0%)
DIIS solution               ....       0.197 sec  (  0.1%)
SOSCF solution              ....       0.106 sec  (  0.0%)
Grid generation             ....       3.851 sec  (  1.0%)

------------------------------------------------------------------------------
                              ORCA MP2 CALCULATION
------------------------------------------------------------------------------


----------------------
RI-MP2 ENERGY+GRADIENT
----------------------
Dimension of the basis                    ...  259
Memory devoted to MP2                     ... 1000 MB   
Data format for buffers                   ... DOUBLE
Compression type for matrix containers    ... UNCOMPRESSED
Overall scaling of the MP2 energy         ...   2.700e-01 Eh
Calculating two index integrals           ... done (    0.011 sec)
Cholesky decomposition of the V-matrix    ... done
Cholesky decomposition of V**-1           ... done (    0.030 sec)

-----------------
RI-TRANSFORMATION (AUX index driven)
-----------------

Dimension of the orbital-basis         ... 259
Dimension of the aux-basis             ... 493
Transformation of internal MOs         ...    0-  45
Transformation of internal/external MOs...    0-  45 to   46- 258
Number Format for Storage              ... Double (8 Byte)
Integral mode                          ... Direct

First Phase: integral generation and transformation of MO indices
  Aux angular momentum 0               ... done (    0.491 sec)
  Aux angular momentum 1               ... done (    0.401 sec)
  Aux angular momentum 2               ... done (    0.437 sec)
  Aux angular momentum 3               ... done (    0.255 sec)
  Aux angular momentum 4               ... done (    0.221 sec)
Closing buffer VIJ ( 0.00 GB; CompressionRatio= 1.95)
Closing buffer VIA ( 0.04 GB; CompressionRatio= 1.00)
  Phase 1 completed in     1.909 sec
Second Phase: sorting and transformation of aux index

IJ-Transformation
Memory available                       ... 990 MB 
Max. # MO pairs treated in a batch     ... 46    
# of internal orbitals                 ... 46
# batches for internal orbitals        ... 1
Closing buffer IJV ( 0.00 GB; CompressionRatio= 1.00)
(ij|v) transformation done in     0.118 sec

IA-Transformation
Memory available                       ... 990 MB 
Max. # MO pairs treated in a batch     ... 46    
# of internal orbitals                 ... 46
# batches for internal orbitals        ... 1
Closing buffer IAV ( 0.04 GB; CompressionRatio= 1.00)
(ia|v) transformation done in     0.504 sec

  Phase 2 completed in     0.644 sec
RI-Integral transformation completed in     2.553 sec
Opening buffers                              ... done

Starting loop over batches of integrals:

Operator 0  - window                       ... (  0- 45)x( 46-258)
Operator 0  - Memory available             ...  1000 MB
Operator 0  - Memory needed per MO         ...   1.6 MB
Operator 0  - Number of orbitals per batch ... 46
Operator 0  - Number of batches            ... 1

OPERATOR  0   PASS   0:  MOs     0 ...   45
  Reading integrals       ... ok
  Internal MO   2
  Internal MO   5
  Internal MO   8
  Internal MO  11
  Internal MO  14
  Internal MO  17
  Internal MO  20
  Internal MO  23
  Internal MO  26
  Internal MO  29
  Internal MO  32
  Internal MO  35
  Internal MO  38
  Internal MO  41
  Internal MO  44
Closing buffer GIPV ( 0.04 GB; CompressionRatio= 1.00)
Time spent in pair loops =    54.703 sec

-----------------------------------------------
 RI-MP2 CORRELATION ENERGY:     -0.580462848 Eh
-----------------------------------------------


---------------------
MP2 DENSITY FORMATION
---------------------

Completing the external part of the density      ... done
Storing the unrelaxed density                    ... done

Calculating the xc-kernel                        ... done
Calculating G(D)                                 ... done
Completing the Lagrangian                        ... done
Solving the Z-vector equations                   ... 

------------------------------------------------------------------------------
                           ORCA CP-SCF CALCULATION
------------------------------------------------------------------------------

Input orbitals are from        ... PbMACl3_mp2_md_7.orca.gbw
Input Perturbation             ... PbMACl3_mp2_md_7.orca.pin.tmp
Wavefunction output            ... PbMACl3_mp2_md_7.orca.pout.tmp
Perturbation mode              ... Real perturbation
Solver                         ... DIIS
   MaxDIIS                     ... 20
   Levelshift                  ...    3.000e-01 Eh
Max. number of iterations      ... 128
Convergence tolerance          ... 1.000e-08
Integral handling              ... Direct
COSX GridX                     ... 1
Number of perturbations        ... 1
Number of operators            ... 1
Orbital ranges used for CP-SCF:
 Operator 0:  Orbitals   0... 45  to  46...258
DFT calculation                         ... on
Exchange functional (SCF)               ... B88
Exchange functional (CP-SCF)            ... B88
   X-Alpha parameter    XAlpha (SCF)    ...  0.666667
   X-Alpha parameter    XAlpha (CP-SCF) ...  0.666667
   Becke's b parameter  XBeta (SCF)     ...  0.004200
   Becke's b parameter  XBeta (CP-SCF)  ...  0.004200
Correlation functional (SCF)            ... LYP
Correlation functional (CP-SCF)         ... LYP
 LDA part of GGA corr.  LDAOpt (SCF)    ... VWN-3
 LDA part of GGA corr.  LDAOpt (CP-SCF) ... VWN-3
Hybrid DFT                              ... on
   Exchange mixing (SCF)                ...  0.530
   Exchange mixing (CP-SCF)             ...  0.530
   GGA exch. scaling(SCF)               ...  0.470
   GGA exch. scaling (CP-SCF)           ...  0.470
   GGA corr. scaling (SCF)              ...  0.730
   GGA corr. scaling (CP-SCF)           ...  0.730
The RIJCOSX approximation is active
Variables per vector in CP-SCF ... 9798
Number of vectors sought       ... 1
Calculating the xc-kernel      ... done

Solving the CP-SCF equations by a DIIS algorithm

-----------------
CP-SCF ITERATIONS
-----------------
  Iteration   0: MaxR=  0.089031001
  Iteration   1: MaxR=  0.041712282
  Iteration   2: MaxR=  0.012276600
  Iteration   3: MaxR=  0.005420899
  Iteration   4: MaxR=  0.002856224
  Iteration   5: MaxR=  0.001220668
  Iteration   6: MaxR=  0.000506504
  Iteration   7: MaxR=  0.000158304
  Iteration   8: MaxR=  0.000066273
  Iteration   9: MaxR=  0.000021599
  Iteration  10: MaxR=  0.000009257
  Iteration  11: MaxR=  0.000003324
  Iteration  12: MaxR=  0.000001383
  Iteration  13: MaxR=  0.000000510
  Iteration  14: MaxR=  0.000000203
  Iteration  15: MaxR=  0.000000075
  Iteration  16: MaxR=  0.000000023
  Iteration  17: MaxR=  0.000000008
                              *** THE CP-SCF HAS CONVERGED *** 
done
Finalizing the relaxed density                   ... done
Transforming P to the AO basis                   ... done
Storing the relaxed density                      ... done

------------------------------------
ENERGY WEIGHTED DENSITY FINALIZATION
------------------------------------

Gathering the parts of the W-matrix              ... done
Forming the Z-density                            ... done
Transforming Z to the AO basis                   ... done
Calculating G(Z)                                 ... done
Finalizing the W-matrix                          ... done
Transforming W to the AO basis and storing       ... done
Entering the RIJONX and RIJCOSX sections
Starting the three-index derivative integrals:
Operator 0  - Memory available             ...  1000 MB
Operator 0  - Memory needed per MO         ...   1.0 MB
Operator 0  - Number of orbitals per batch ... 46
Operator 0  - Number of batches            ... 1

OPERATOR  0   PASS   0:  MOs     0 ...   45

----------------------------------
MP2 DERIVATIVE INTEGRAL GENERATION
----------------------------------


Input Correlated Electron Density   ... PbMACl3_mp2_md_7.orca.pmp2re
Input Energy Weighted Density       ... PbMACl3_mp2_md_7.orca.wmp2.tmp
Input SCF Electron Density          ... PbMACl3_mp2_md_7.orca.scfp.tmp

One-Electron Terms    ...
  ECP gradient                                           ... One-Electron Terms done

-----------------------------------------------------------
MP2 COSX Grid Generation
-----------------------------------------------------------

General Integration Accuracy     IntAcc      ...  4.340
Radial Grid Type                 RadialGrid  ... Gauss-Chebyshev
Angular Grid (max. acc.)         AngularGrid ... Lebedev-302
Angular grid pruning method      GridPruning ... 3 (G Style)
Weight generation scheme         WeightScheme... Becke
Basis function cutoff            BFCut       ...    1.0000e-11
Integration weight cutoff        WCut        ...    1.0000e-14
Grids for H and He will be reduced by one unit

# of grid points (after initial pruning)     ...  57718 (   0.0 sec)
# of grid points (after weights+screening)   ...  54454 (   0.1 sec)
nearest neighbour list constructed           ...    0.0 sec
Grid point re-assignment to atoms done       ...    0.0 sec
Grid point division into batches done        ...    0.2 sec
Reduced shell lists constructed in    1.0 sec

Total number of grid points                  ...    54454
Total number of batches                      ...      856
Average number of points per batch           ...       63
Average number of grid points per atom       ...     4538
Average number of shells per batch           ...    55.33 (54.78%)
Average number of basis functions per batch  ...   146.08 (56.40%)
Average number of large shells per batch     ...    41.64 (75.25%)
Average number of large basis fcns per batch ...   107.63 (73.68%)
Maximum spatial batch extension              ...  29.99, 31.61, 33.36 au
Average spatial batch extension              ...   3.10,  3.06,  3.16 au

Overlap Fitting                  UseSFitting ... on
Two electron COSX terms .... 
Integration Timings:
Total Time                  =   106.3 sec
Basis fcn evaluation        =     0.4 sec
Density evaluation          =     1.2 sec
Integral evaluation         =   102.5 sec
K(P) evaluation             =     1.0 sec
                          .... COSX two electron terms done
COSX two-electron contribution to the gradient
     0:    -0.033857     0.027740    -0.102053
     1:     0.020139    -0.086477     0.067542
     2:    -0.150419    -0.051064     0.023060
     3:     0.109646    -0.047130    -0.181548
     4:    -0.041900     0.222792    -0.025216
     5:    -0.016787    -0.136850     0.101916
     6:    -0.049209     0.060383     0.147132
     7:     0.168474     0.011119    -0.021794
     8:    -0.008911     0.019471    -0.042287
     9:     0.058402    -0.027916    -0.007945
    10:    -0.013143     0.046124    -0.024025
    11:    -0.042732    -0.038684     0.064802
Exchange-correlation gradient    ... done
Dispersion correction            ... 
Entering the calculation of the dispersion correction...

Checking the input atom types...

Done
done

                *********************************************
                * UNRELAXED MP2 DENSITY POPULATION ANALYSIS *
                *********************************************

------------------------------------------------------------------------------
                           ORCA POPULATION ANALYSIS
------------------------------------------------------------------------------
Input electron density              ... PbMACl3_mp2_md_7.orca.pmp2ur
BaseName (.gbw .S,...)              ... PbMACl3_mp2_md_7.orca

                    ********************************
                    * MULLIKEN POPULATION ANALYSIS *
                    ********************************

-----------------------
MULLIKEN ATOMIC CHARGES
-----------------------
   0 C :   -0.296690
   1 N :   -0.263111
   2 H :    0.311731
   3 H :    0.306577
   4 H :    0.240071
   5 H :    0.200089
   6 H :    0.161959
   7 H :    0.161059
   8 Pb:    0.786391
   9 Cl:   -0.575305
  10 Cl:   -0.518028
  11 Cl:   -0.514742
Sum of atomic charges:   -0.0000000

--------------------------------
MULLIKEN REDUCED ORBITAL CHARGES
--------------------------------
  0 C s       :     3.254020  s :     3.254020
      pz      :     0.830989  p :     2.960448
      px      :     0.983550
      py      :     1.145909
      dz2     :     0.015887  d :     0.075153
      dxz     :     0.014517
      dyz     :     0.021246
      dx2y2   :     0.016831
      dxy     :     0.006673
      f0      :     0.001160  f :     0.007069
      f+1     :     0.001634
      f-1     :     0.000895
      f+2     :     0.001403
      f-2     :     0.000956
      f+3     :     0.000650
      f-3     :     0.000372
  1 N s       :     3.407838  s :     3.407838
      pz      :     1.235970  p :     3.795987
      px      :     1.293170
      py      :     1.266847
      dz2     :     0.014928  d :     0.056012
      dxz     :     0.012675
      dyz     :     0.008733
      dx2y2   :     0.014463
      dxy     :     0.005213
      f0      :     0.000380  f :     0.003274
      f+1     :     0.000865
      f-1     :     0.000531
      f+2     :     0.000324
      f-2     :     0.000395
      f+3     :     0.000308
      f-3     :     0.000472
  2 H s       :     0.639031  s :     0.639031
      pz      :     0.008968  p :     0.049238
      px      :     0.033256
      py      :     0.007014
  3 H s       :     0.657900  s :     0.657900
      pz      :     0.017646  p :     0.035524
      px      :     0.009676
      py      :     0.008202
  4 H s       :     0.716276  s :     0.716276
      pz      :     0.008778  p :     0.043654
      px      :     0.010811
      py      :     0.024065
  5 H s       :     0.776743  s :     0.776743
      pz      :     0.006321  p :     0.023168
      px      :     0.003786
      py      :     0.013061
  6 H s       :     0.814032  s :     0.814032
      pz      :     0.011550  p :     0.024009
      px      :     0.004562
      py      :     0.007897
  7 H s       :     0.816399  s :     0.816399
      pz      :     0.003122  p :     0.022542
      px      :     0.014718
      py      :     0.004702
  8 Pbs       :     3.916925  s :     3.916925
      pz      :     2.417348  p :     7.057071
      px      :     2.337557
      py      :     2.302166
      dz2     :     2.028471  d :    10.130980
      dxz     :     2.029653
      dyz     :     2.019619
      dx2y2   :     2.028825
      dxy     :     2.024413
      f0      :     0.015155  f :     0.108632
      f+1     :     0.014609
      f-1     :     0.014523
      f+2     :     0.015554
      f-2     :     0.010914
      f+3     :     0.017890
      f-3     :     0.019989
  9 Cls       :     5.951794  s :     5.951794
      pz      :     3.920790  p :    11.565709
      px      :     3.763282
      py      :     3.881637
      dz2     :     0.010281  d :     0.054453
      dxz     :     0.010045
      dyz     :     0.008363
      dx2y2   :     0.014161
      dxy     :     0.011602
      f0      :     0.000437  f :     0.003350
      f+1     :     0.000529
      f-1     :     0.000398
      f+2     :     0.000437
      f-2     :     0.000413
      f+3     :     0.000561
      f-3     :     0.000575
 10 Cls       :     5.949011  s :     5.949011
      pz      :     3.843552  p :    11.493394
      px      :     3.893207
      py      :     3.756635
      dz2     :     0.012688  d :     0.071249
      dxz     :     0.013339
      dyz     :     0.012874
      dx2y2   :     0.019710
      dxy     :     0.012639
      f0      :     0.000507  f :     0.004374
      f+1     :     0.000590
      f-1     :     0.000627
      f+2     :     0.000719
      f-2     :     0.000486
      f+3     :     0.000676
      f-3     :     0.000769
 11 Cls       :     5.943620  s :     5.943620
      pz      :     3.807467  p :    11.508476
      px      :     3.847668
      py      :     3.853341
      dz2     :     0.013461  d :     0.058841
      dxz     :     0.013586
      dyz     :     0.012779
      dx2y2   :     0.009050
      dxy     :     0.009965
      f0      :     0.000561  f :     0.003805
      f+1     :     0.000659
      f-1     :     0.000609
      f+2     :     0.000519
      f-2     :     0.000626
      f+3     :     0.000414
      f-3     :     0.000418


                     *******************************
                     * LOEWDIN POPULATION ANALYSIS *
                     *******************************

----------------------
LOEWDIN ATOMIC CHARGES
----------------------
   0 C :   -0.292580
   1 N :    0.106678
   2 H :    0.176968
   3 H :    0.198626
   4 H :    0.135242
   5 H :    0.147201
   6 H :    0.123456
   7 H :    0.132377
   8 Pb:   -0.176457
   9 Cl:   -0.283580
  10 Cl:   -0.097262
  11 Cl:   -0.170668

-------------------------------
LOEWDIN REDUCED ORBITAL CHARGES
-------------------------------
  0 C s       :     2.856028  s :     2.856028
      pz      :     0.926876  p :     3.106127
      px      :     1.031251
      py      :     1.148000
      dz2     :     0.071856  d :     0.295238
      dxz     :     0.065748
      dyz     :     0.078249
      dx2y2   :     0.062330
      dxy     :     0.017054
      f0      :     0.006596  f :     0.035187
      f+1     :     0.007809
      f-1     :     0.004891
      f+2     :     0.004942
      f-2     :     0.006595
      f+3     :     0.002709
      f-3     :     0.001645
  1 N s       :     2.977802  s :     2.977802
      pz      :     1.226304  p :     3.733523
      px      :     1.252844
      py      :     1.254374
      dz2     :     0.047735  d :     0.170637
      dxz     :     0.038735
      dyz     :     0.025621
      dx2y2   :     0.042945
      dxy     :     0.015601
      f0      :     0.001376  f :     0.011361
      f+1     :     0.002017
      f-1     :     0.002202
      f+2     :     0.001437
      f-2     :     0.001553
      f+3     :     0.001064
      f-3     :     0.001712
  2 H s       :     0.677609  s :     0.677609
      pz      :     0.024088  p :     0.145423
      px      :     0.103642
      py      :     0.017693
  3 H s       :     0.694510  s :     0.694510
      pz      :     0.050855  p :     0.106864
      px      :     0.032094
      py      :     0.023916
  4 H s       :     0.728565  s :     0.728565
      pz      :     0.029884  p :     0.136193
      px      :     0.035456
      py      :     0.070854
  5 H s       :     0.789146  s :     0.789146
      pz      :     0.016732  p :     0.063653
      px      :     0.011036
      py      :     0.035884
  6 H s       :     0.807666  s :     0.807666
      pz      :     0.030696  p :     0.068878
      px      :     0.014628
      py      :     0.023553
  7 H s       :     0.805712  s :     0.805712
      pz      :     0.009266  p :     0.061910
      px      :     0.039066
      py      :     0.013579
  8 Pbs       :     3.677087  s :     3.677087
      pz      :     2.562823  p :     7.558212
      px      :     2.497351
      py      :     2.498038
      dz2     :     2.132511  d :    10.674002
      dxz     :     2.114902
      dyz     :     2.119037
      dx2y2   :     2.183982
      dxy     :     2.123569
      f0      :     0.029234  f :     0.267156
      f+1     :     0.038401
      f-1     :     0.040422
      f+2     :     0.031601
      f-2     :     0.024891
      f+3     :     0.042595
      f-3     :     0.060012
  9 Cls       :     5.772327  s :     5.772327
      pz      :     3.875838  p :    11.438282
      px      :     3.727412
      py      :     3.835033
      dz2     :     0.013909  d :     0.068695
      dxz     :     0.010078
      dyz     :     0.008304
      dx2y2   :     0.022635
      dxy     :     0.013767
      f0      :     0.000441  f :     0.004276
      f+1     :     0.000839
      f-1     :     0.000417
      f+2     :     0.000452
      f-2     :     0.000417
      f+3     :     0.000854
      f-3     :     0.000857
 10 Cls       :     5.688940  s :     5.688940
      pz      :     3.774106  p :    11.294561
      px      :     3.799188
      py      :     3.721267
      dz2     :     0.020022  d :     0.106649
      dxz     :     0.017934
      dyz     :     0.013070
      dx2y2   :     0.042361
      dxy     :     0.013263
      f0      :     0.000585  f :     0.007112
      f+1     :     0.000819
      f-1     :     0.001328
      f+2     :     0.001104
      f-2     :     0.000488
      f+3     :     0.000921
      f-3     :     0.001868
 11 Cls       :     5.726193  s :     5.726193
      pz      :     3.764075  p :    11.361140
      px      :     3.795290
      py      :     3.801775
      dz2     :     0.020492  d :     0.078026
      dxz     :     0.020400
      dyz     :     0.017598
      dx2y2   :     0.008812
      dxy     :     0.010723
      f0      :     0.000646  f :     0.005309
      f+1     :     0.001264
      f-1     :     0.001060
      f+2     :     0.000538
      f-2     :     0.000953
      f+3     :     0.000417
      f-3     :     0.000431


                      *****************************
                      * MAYER POPULATION ANALYSIS *
                      *****************************

  NA   - Mulliken gross atomic population
  ZA   - Total nuclear charge
  QA   - Mulliken gross atomic charge
  VA   - Mayer's total valence
  BVA  - Mayer's bonded valence
  FA   - Mayer's free valence

  ATOM       NA         ZA         QA         VA         BVA        FA
  0 C      6.2967     6.0000    -0.2967     3.8567     3.7372     0.1195
  1 N      7.2631     7.0000    -0.2631     3.5252     3.3861     0.1391
  2 H      0.6883     1.0000     0.3117     0.9559     0.9337     0.0223
  3 H      0.6934     1.0000     0.3066     0.9348     0.9170     0.0178
  4 H      0.7599     1.0000     0.2401     0.9577     0.9415     0.0162
  5 H      0.7999     1.0000     0.2001     0.9648     0.9455     0.0193
  6 H      0.8380     1.0000     0.1620     0.9568     0.9379     0.0189
  7 H      0.8389     1.0000     0.1611     0.9667     0.9477     0.0189
  8 Pb    21.2136    22.0000     0.7864     2.2833     1.9115     0.3718
  9 Cl    17.5753    17.0000    -0.5753     0.9563     0.6931     0.2631
 10 Cl    17.5180    17.0000    -0.5180     1.0356     0.7748     0.2608
 11 Cl    17.5147    17.0000    -0.5147     1.0551     0.7939     0.2612

  Mayer bond orders larger than 0.1
B(  0-C ,  1-N ) :   0.8745 B(  0-C ,  5-H ) :   0.9419 B(  0-C ,  6-H ) :   0.9489 
B(  0-C ,  7-H ) :   0.9496 B(  1-N ,  2-H ) :   0.7209 B(  1-N ,  3-H ) :   0.8646 
B(  1-N ,  4-H ) :   0.9179 B(  2-H , 10-Cl) :   0.2130 B(  8-Pb,  9-Cl) :   0.6173 
B(  8-Pb, 10-Cl) :   0.5129 B(  8-Pb, 11-Cl) :   0.7711 


                *******************************************
                * RELAXED MP2 DENSITY POPULATION ANALYSIS *
                *******************************************

------------------------------------------------------------------------------
                           ORCA POPULATION ANALYSIS
------------------------------------------------------------------------------
Input electron density              ... PbMACl3_mp2_md_7.orca.pmp2re
BaseName (.gbw .S,...)              ... PbMACl3_mp2_md_7.orca

                    ********************************
                    * MULLIKEN POPULATION ANALYSIS *
                    ********************************

-----------------------
MULLIKEN ATOMIC CHARGES
-----------------------
   0 C :   -0.312510
   1 N :   -0.262737
   2 H :    0.303415
   3 H :    0.303947
   4 H :    0.240422
   5 H :    0.202847
   6 H :    0.165547
   7 H :    0.164210
   8 Pb:    0.732204
   9 Cl:   -0.551571
  10 Cl:   -0.494582
  11 Cl:   -0.491192
Sum of atomic charges:   -0.0000000

--------------------------------
MULLIKEN REDUCED ORBITAL CHARGES
--------------------------------
  0 C s       :     3.256202  s :     3.256202
      pz      :     0.838804  p :     2.978433
      px      :     0.988972
      py      :     1.150658
      dz2     :     0.015122  d :     0.070952
      dxz     :     0.013633
      dyz     :     0.020080
      dx2y2   :     0.015612
      dxy     :     0.006505
      f0      :     0.001151  f :     0.006922
      f+1     :     0.001582
      f-1     :     0.000877
      f+2     :     0.001378
      f-2     :     0.000933
      f+3     :     0.000638
      f-3     :     0.000363
  1 N s       :     3.409776  s :     3.409776
      pz      :     1.234761  p :     3.795050
      px      :     1.293179
      py      :     1.267110
      dz2     :     0.014572  d :     0.054694
      dxz     :     0.012168
      dyz     :     0.008702
      dx2y2   :     0.014163
      dxy     :     0.005089
      f0      :     0.000381  f :     0.003217
      f+1     :     0.000834
      f-1     :     0.000522
      f+2     :     0.000322
      f-2     :     0.000393
      f+3     :     0.000306
      f-3     :     0.000458
  2 H s       :     0.647901  s :     0.647901
      pz      :     0.009001  p :     0.048684
      px      :     0.032567
      py      :     0.007116
  3 H s       :     0.660982  s :     0.660982
      pz      :     0.017236  p :     0.035071
      px      :     0.009583
      py      :     0.008252
  4 H s       :     0.716418  s :     0.716418
      pz      :     0.008825  p :     0.043160
      px      :     0.010828
      py      :     0.023506
  5 H s       :     0.774392  s :     0.774392
      pz      :     0.006185  p :     0.022762
      px      :     0.003862
      py      :     0.012715
  6 H s       :     0.810827  s :     0.810827
      pz      :     0.011145  p :     0.023626
      px      :     0.004609
      py      :     0.007872
  7 H s       :     0.813638  s :     0.813638
      pz      :     0.003202  p :     0.022152
      px      :     0.014175
      py      :     0.004775
  8 Pbs       :     3.931103  s :     3.931103
      pz      :     2.420994  p :     7.099636
      px      :     2.358440
      py      :     2.320202
      dz2     :     2.027092  d :    10.130375
      dxz     :     2.030147
      dyz     :     2.020118
      dx2y2   :     2.027312
      dxy     :     2.025707
      f0      :     0.014972  f :     0.106682
      f+1     :     0.014208
      f-1     :     0.014176
      f+2     :     0.015424
      f-2     :     0.010737
      f+3     :     0.017624
      f-3     :     0.019541
  9 Cls       :     5.952618  s :     5.952618
      pz      :     3.913862  p :    11.541273
      px      :     3.754389
      py      :     3.873023
      dz2     :     0.010245  d :     0.054322
      dxz     :     0.010057
      dyz     :     0.008348
      dx2y2   :     0.014196
      dxy     :     0.011476
      f0      :     0.000439  f :     0.003359
      f+1     :     0.000528
      f-1     :     0.000399
      f+2     :     0.000439
      f-2     :     0.000414
      f+3     :     0.000564
      f-3     :     0.000576
 10 Cls       :     5.949249  s :     5.949249
      pz      :     3.832869  p :    11.469083
      px      :     3.885043
      py      :     3.751171
      dz2     :     0.012737  d :     0.071851
      dxz     :     0.013590
      dyz     :     0.012819
      dx2y2   :     0.020031
      dxy     :     0.012674
      f0      :     0.000509  f :     0.004399
      f+1     :     0.000599
      f-1     :     0.000624
      f+2     :     0.000728
      f-2     :     0.000487
      f+3     :     0.000684
      f-3     :     0.000767
 11 Cls       :     5.944326  s :     5.944326
      pz      :     3.799227  p :    11.484403
      px      :     3.839758
      py      :     3.845418
      dz2     :     0.013595  d :     0.058651
      dxz     :     0.013479
      dyz     :     0.012675
      dx2y2   :     0.009058
      dxy     :     0.009846
      f0      :     0.000565  f :     0.003812
      f+1     :     0.000658
      f-1     :     0.000608
      f+2     :     0.000523
      f-2     :     0.000624
      f+3     :     0.000415
      f-3     :     0.000419


                     *******************************
                     * LOEWDIN POPULATION ANALYSIS *
                     *******************************

----------------------
LOEWDIN ATOMIC CHARGES
----------------------
   0 C :   -0.301997
   1 N :    0.102900
   2 H :    0.174664
   3 H :    0.198261
   4 H :    0.135313
   5 H :    0.149052
   6 H :    0.125414
   7 H :    0.134301
   8 Pb:   -0.205350
   9 Cl:   -0.269029
  10 Cl:   -0.086570
  11 Cl:   -0.156960

-------------------------------
LOEWDIN REDUCED ORBITAL CHARGES
-------------------------------
  0 C s       :     2.857435  s :     2.857435
      pz      :     0.931170  p :     3.118768
      px      :     1.035317
      py      :     1.152282
      dz2     :     0.070942  d :     0.290831
      dxz     :     0.064658
      dyz     :     0.077140
      dx2y2   :     0.061240
      dxy     :     0.016851
      f0      :     0.006559  f :     0.034963
      f+1     :     0.007742
      f-1     :     0.004865
      f+2     :     0.004901
      f-2     :     0.006563
      f+3     :     0.002691
      f-3     :     0.001642
  1 N s       :     2.979491  s :     2.979491
      pz      :     1.226205  p :     3.735814
      px      :     1.253904
      py      :     1.255705
      dz2     :     0.047585  d :     0.170389
      dxz     :     0.038542
      dyz     :     0.025679
      dx2y2   :     0.043014
      dxy     :     0.015569
      f0      :     0.001380  f :     0.011405
      f+1     :     0.002034
      f-1     :     0.002200
      f+2     :     0.001439
      f-2     :     0.001569
      f+3     :     0.001073
      f-3     :     0.001710
  2 H s       :     0.680458  s :     0.680458
      pz      :     0.024003  p :     0.144878
      px      :     0.103071
      py      :     0.017805
  3 H s       :     0.695152  s :     0.695152
      pz      :     0.050497  p :     0.106587
      px      :     0.032061
      py      :     0.024028
  4 H s       :     0.728697  s :     0.728697
      pz      :     0.029978  p :     0.135989
      px      :     0.035494
      py      :     0.070517
  5 H s       :     0.787382  s :     0.787382
      pz      :     0.016649  p :     0.063565
      px      :     0.011202
      py      :     0.035713
  6 H s       :     0.805670  s :     0.805670
      pz      :     0.030479  p :     0.068916
      px      :     0.014804
      py      :     0.023633
  7 H s       :     0.803787  s :     0.803787
      pz      :     0.009459  p :     0.061913
      px      :     0.038719
      py      :     0.013734
  8 Pbs       :     3.689822  s :     3.689822
      pz      :     2.562019  p :     7.582870
      px      :     2.511929
      py      :     2.508921
      dz2     :     2.130102  d :    10.667972
      dxz     :     2.114332
      dyz     :     2.118685
      dx2y2   :     2.181182
      dxy     :     2.123671
      f0      :     0.028882  f :     0.264687
      f+1     :     0.037982
      f-1     :     0.040120
      f+2     :     0.031271
      f-2     :     0.024567
      f+3     :     0.042207
      f-3     :     0.059657
  9 Cls       :     5.775278  s :     5.775278
      pz      :     3.870127  p :    11.420108
      px      :     3.721515
      py      :     3.828466
      dz2     :     0.014045  d :     0.069311
      dxz     :     0.010117
      dyz     :     0.008299
      dx2y2   :     0.022961
      dxy     :     0.013889
      f0      :     0.000444  f :     0.004332
      f+1     :     0.000853
      f-1     :     0.000419
      f+2     :     0.000454
      f-2     :     0.000419
      f+3     :     0.000868
      f-3     :     0.000876
 10 Cls       :     5.692335  s :     5.692335
      pz      :     3.766535  p :    11.278384
      px      :     3.793267
      py      :     3.718582
      dz2     :     0.020347  d :     0.108613
      dxz     :     0.018210
      dyz     :     0.013173
      dx2y2   :     0.043350
      dxy     :     0.013532
      f0      :     0.000591  f :     0.007238
      f+1     :     0.000831
      f-1     :     0.001351
      f+2     :     0.001120
      f-2     :     0.000490
      f+3     :     0.000948
      f-3     :     0.001907
 11 Cls       :     5.729376  s :     5.729376
      pz      :     3.758240  p :    11.343119
      px      :     3.789245
      py      :     3.795634
      dz2     :     0.020780  d :     0.079060
      dxz     :     0.020778
      dyz     :     0.017887
      dx2y2   :     0.008866
      dxy     :     0.010749
      f0      :     0.000651  f :     0.005405
      f+1     :     0.001292
      f-1     :     0.001083
      f+2     :     0.000549
      f-2     :     0.000977
      f+3     :     0.000419
      f-3     :     0.000434


                      *****************************
                      * MAYER POPULATION ANALYSIS *
                      *****************************

  NA   - Mulliken gross atomic population
  ZA   - Total nuclear charge
  QA   - Mulliken gross atomic charge
  VA   - Mayer's total valence
  BVA  - Mayer's bonded valence
  FA   - Mayer's free valence

  ATOM       NA         ZA         QA         VA         BVA        FA
  0 C      6.3125     6.0000    -0.3125     3.8591     3.7399     0.1192
  1 N      7.2627     7.0000    -0.2627     3.5314     3.3926     0.1388
  2 H      0.6966     1.0000     0.3034     0.9629     0.9408     0.0221
  3 H      0.6961     1.0000     0.3039     0.9390     0.9214     0.0177
  4 H      0.7596     1.0000     0.2404     0.9579     0.9418     0.0161
  5 H      0.7972     1.0000     0.2028     0.9642     0.9450     0.0192
  6 H      0.8345     1.0000     0.1655     0.9559     0.9371     0.0188
  7 H      0.8358     1.0000     0.1642     0.9656     0.9467     0.0189
  8 Pb    21.2678    22.0000     0.7322     2.3668     2.0009     0.3659
  9 Cl    17.5516    17.0000    -0.5516     0.9990     0.7374     0.2616
 10 Cl    17.4946    17.0000    -0.4946     1.0808     0.8213     0.2595
 11 Cl    17.4912    17.0000    -0.4912     1.0973     0.8377     0.2595

  Mayer bond orders larger than 0.1
B(  0-C ,  1-N ) :   0.8823 B(  0-C ,  5-H ) :   0.9389 B(  0-C ,  6-H ) :   0.9462 
B(  0-C ,  7-H ) :   0.9472 B(  1-N ,  2-H ) :   0.7154 B(  1-N ,  3-H ) :   0.8631 
B(  1-N ,  4-H ) :   0.9154 B(  2-H , 10-Cl) :   0.2250 B(  8-Pb,  9-Cl) :   0.6489 
B(  8-Pb, 10-Cl) :   0.5314 B(  8-Pb, 11-Cl) :   0.8080 


-------
TIMINGS
-------

Total time                :  539.289 sec
Integral trafo            :    2.562 sec (  0.5%)
I/O of integrals          :    0.115 sec (  0.0%)
K(i,j) Operators          :    8.989 sec (  1.7%)
T(i,j) pair energies      :    1.269 sec (  0.2%)
V-calculation             :    0.011 sec (  0.0%)
V**(-1/2)                 :    0.030 sec (  0.0%)
Gamma(ia|P)               :    8.737 sec (  1.6%)
Gamma-Trafo               :    1.168 sec (  0.2%)
D(virtual)                :    3.849 sec (  0.7%)
D(internal)               :    3.874 sec (  0.7%)
W(virtual)                :    7.709 sec (  1.4%)
W(internal)               :   13.048 sec (  2.4%)
L(virtual)                :    5.468 sec (  1.0%)
L(internal)               :    0.203 sec (  0.0%)
G(D)                      :   15.320 sec (  2.8%)
G(Z)                      :   15.547 sec (  2.9%)
Z-Vector Solution         :  323.950 sec ( 60.1%)
Z-Vector Solution         :  323.950 sec ( 60.1%)
3-Index Derivative 
+ Separable RIJ part      :    4.667 sec (  0.9%)
2-Index Derivative 
+ Separable RIJ part      :    0.037 sec (  0.0%)
Separable Gradient (COSX) :  120.193 sec ( 22.3%)


---------------------------------------
MP2 TOTAL ENERGY:    -1669.537911575 Eh
---------------------------------------

The final MP2 gradient
  0:  -0.02152160   0.01637480  -0.02329374
  1:  -0.00450916   0.11884475  -0.05169786
  2:  -0.03776644  -0.00278497   0.01207159
  3:   0.00527014   0.01521418   0.00326397
  4:   0.00960459  -0.12163510   0.00493416
  5:   0.00353427  -0.00177291   0.03760761
  6:   0.00045625  -0.02507841   0.00800974
  7:   0.02039351  -0.00218844  -0.00234796
  8:   0.00914667   0.06730269   0.03967944
  9:  -0.01093654  -0.00941430  -0.00767615
 10:   0.02116564  -0.05656713   0.00380766
 11:   0.00475498   0.00121480  -0.02476147

-----------------------------------
NORM OF THE MP2 GRADIENT:  0.219445
-----------------------------------

Entering the calculation of the dispersion correction...

Checking the input atom types...

Done


-------------------------------------------------------------------------------
                          DFT DISPERSION CORRECTION                            
                                                                               
                                DFTD3 V2.1  Rev 6                               
                          USING Becke-Johnson damping                          
-------------------------------------------------------------------------------
The B2PLYP functional is recognized
Active option DFTDOPT                   ...         4   

molecular C6(AA) [au] = 4868.143450 


            DFT-D V3
 parameters
 s6 scaling factor         :     0.6400 
 a1 scaling factor         :     0.3065 
 s8 scaling factor         :     0.9147 
 a2 scaling factor         :     5.0570 
 ad hoc parameters k1-k3   :    16.0000     1.3333    -4.0000 

 Edisp/kcal,au: -8.139726409890  -0.012971478325 
 E6   /kcal   :  -3.718208393 
 E8   /kcal   :  -4.421518017 
 % E8         :  54.320228891 

-------------------------   ----------------
Dispersion correction           -0.012971478
-------------------------   ----------------


-------------------------   --------------------
FINAL SINGLE POINT ENERGY     -1669.550883053672
-------------------------   --------------------


                            ***************************************
                            *     ORCA property calculations      *
                            ***************************************


  WARNING: The energy has been calculated at the MP2 level but the densities
           used in the property calculations are still SCF densities
           MP2 response densities have not been calculated 
           use %mp2 Density relaxed end
           or  %mp2 Density unrelaxed end

                                    ---------------------
                                    Active property flags
                                    ---------------------
   (+) Dipole Moment


------------------------------------------------------------------------------
                       ORCA ELECTRIC PROPERTIES CALCULATION
------------------------------------------------------------------------------

Dipole Moment Calculation                       ... on
Quadrupole Moment Calculation                   ... off
Polarizability Calculation                      ... off
GBWName                                         ... PbMACl3_mp2_md_7.orca.gbw
Electron density file                           ... PbMACl3_mp2_md_7.orca.scfp.tmp

-------------
DIPOLE MOMENT
-------------
                                X             Y             Z
Electronic contribution:    -63.32104     -54.91499     -59.83189
Nuclear contribution   :     65.15762      58.10531      60.42804
                        -----------------------------------------
Total Dipole Moment    :      1.83658       3.19031       0.59615
                        -----------------------------------------
Magnitude (a.u.)       :      3.72914
Magnitude (Debye)      :      9.47873


                         *** MP2 UNRELAXED DENSITY ***

------------------------------------------------------------------------------
                       ORCA ELECTRIC PROPERTIES CALCULATION
------------------------------------------------------------------------------

Dipole Moment Calculation                       ... on
Quadrupole Moment Calculation                   ... off
Polarizability Calculation                      ... off
GBWName                                         ... PbMACl3_mp2_md_7.orca.gbw
Electron density file                           ... PbMACl3_mp2_md_7.orca.pmp2ur

-------------
DIPOLE MOMENT
-------------
                                X             Y             Z
Electronic contribution:    -63.31962     -54.92574     -59.82802
Nuclear contribution   :     65.15762      58.10531      60.42804
                        -----------------------------------------
Total Dipole Moment    :      1.83800       3.17957       0.60002
                        -----------------------------------------
Magnitude (a.u.)       :      3.72128
Magnitude (Debye)      :      9.45875


                           *** MP2 RELAXED DENSITY ***

------------------------------------------------------------------------------
                       ORCA ELECTRIC PROPERTIES CALCULATION
------------------------------------------------------------------------------

Dipole Moment Calculation                       ... on
Quadrupole Moment Calculation                   ... off
Polarizability Calculation                      ... off
GBWName                                         ... PbMACl3_mp2_md_7.orca.gbw
Electron density file                           ... PbMACl3_mp2_md_7.orca.pmp2re

-------------
DIPOLE MOMENT
-------------
                                X             Y             Z
Electronic contribution:    -63.34781     -54.99271     -59.85664
Nuclear contribution   :     65.15762      58.10531      60.42804
                        -----------------------------------------
Total Dipole Moment    :      1.80981       3.11259       0.57139
                        -----------------------------------------
Magnitude (a.u.)       :      3.64556
Magnitude (Debye)      :      9.26629


Timings for individual modules:

Sum of individual times         ...      924.263 sec (=  15.404 min)
GTO integral calculation        ...        0.618 sec (=   0.010 min)   0.1 %
SCF iterations                  ...      382.791 sec (=   6.380 min)  41.4 %
MP2 module                      ...      540.854 sec (=   9.014 min)  58.5 %
                             ****ORCA TERMINATED NORMALLY****
TOTAL RUN TIME: 0 days 0 hours 15 minutes 24 seconds 779 msec
