
                                 *****************
                                 * O   R   C   A *
                                 *****************

           --- An Ab Initio, DFT and Semiempirical electronic structure package ---

                  #######################################################
                  #                        -***-                        #
                  #  Department of molecular theory and spectroscopy    #
                  #              Directorship: Frank Neese              #
                  # Max Planck Institute for Chemical Energy Conversion #
                  #                  D-45470 Muelheim/Ruhr              #
                  #                       Germany                       #
                  #                                                     #
                  #                  All rights reserved                #
                  #                        -***-                        #
                  #######################################################


                         Program Version 3.0.3 - RELEASE   -


 With contributions from (in alphabetic order):
   Ute Becker             : Parallelization
   Dmytro Bykov           : SCF Hessian
   Dmitry Ganyushin       : Spin-Orbit,Spin-Spin,Magnetic field MRCI
   Andreas Hansen         : Spin unrestricted coupled pair/coupled cluster methods
   Dimitrios Liakos       : Extrapolation schemes; parallel MDCI
   Robert Izsak           : Overlap fitted RIJCOSX, COSX-SCS-MP3
   Christian Kollmar      : KDIIS, OOCD, Brueckner-CCSD(T), CCSD density
   Simone Kossmann        : Meta GGA functionals, TD-DFT gradient, OOMP2, MP2 Hessian
   Taras Petrenko         : DFT Hessian,TD-DFT gradient, ASA and ECA modules, normal mode analysis, Resonance Raman, ABS, FL, XAS/XES, NRVS
   Christoph Reimann      : Effective Core Potentials
   Michael Roemelt        : Restricted open shell CIS
   Christoph Riplinger    : Improved optimizer, TS searches, QM/MM, DLPNO-CCSD
   Barbara Sandhoefer     : DKH picture change effects
   Igor Schapiro          : Molecular dynamics
   Kantharuban Sivalingam : CASSCF convergence, NEVPT2
   Boris Wezisla          : Elementary symmetry handling
   Frank Wennmohs         : Technical directorship


 We gratefully acknowledge several colleagues who have allowed us to
 interface, adapt or use parts of their codes:
   Stefan Grimme, W. Hujo, H. Kruse, T. Risthaus : VdW corrections, initial TS optimization,
                                                   DFT functionals, gCP
   Ed Valeev                                     : LibInt (2-el integral package), F12 methods
   Garnet Chan, S. Sharma, R. Olivares           : DMRG
   Ulf Ekstrom                                   : XCFun DFT Library
   Mihaly Kallay                                 : mrcc  (arbitrary order and MRCC methods)
   Andreas Klamt, Michael Diedenhofen            : otool_cosmo (COSMO solvation model)
   Frank Weinhold                                : gennbo (NPA and NBO analysis)
   Christopher J. Cramer and Donald G. Truhlar   : smd solvation model


 Your calculation uses the libint2 library for the computation of 2-el integrals
 For citations please refer to: http://libint.valeyev.net

 This ORCA versions uses:
   CBLAS   interface :  Fast vector & matrix operations
   LAPACKE interface :  Fast linear algebra routines
   SCALAPACK package :  Parallel linear algebra routines


Your calculation utilizes the basis: Ahlrichs-TZV
Cite in your paper:
H - Kr: A. Schaefer, H. Horn and R. Ahlrichs, J. Chem. Phys. 97, 2571 (1992).

The def2-TZV basis will be loaded
Cite in your paper:
 	F. Weigend, R. Ahlrichs, Phys. Chem. Chem. Phys. 2005, 7, 3297.

Your calculation utilizes the atom-pairwise dispersion correction
with the Becke-Johnson damping scheme (D3BJ)
Cite in your paper:
S.Grimme, S.Ehrlich, L.Goerigk, J Comput Chem, (2011), 32, 1456–1465 
S.Grimme, J.Antony, S.Ehrlich and H.Krieg, J.Chem.Phys., 132, (2010), 154104 
   

================================================================================
                                        WARNINGS
                       Please study these warnings very carefully!
================================================================================

WARNING: The RI method has been chosen with no auxiliary basis (AUX or GTOAUX in BASIS block)
        Standard TZV/J expansion basis used (GTOAUX=TZV_J)

Now building the actual basis set
cite the ECPs for Pb [SD(60,MDF)] as follows:
  B. Metz, H. Stoll, M. Dolg, J. Chem. Phys. 113, 2563 (2000).

ECP parameters for Pb [SD(60,MDF)] have been obtained from:
  pseudopotential library of the Stuttgart/Cologne group
  http://www.theochem.uni-stuttgart.de/pseudopotentials/

cite the ECP basis sets for Pb [DEF2-TZVP] as follows:
  F. Weigend, R. Ahlrichs; Phys. Chem. Chem. Phys. 7, 3297(2005).

ECP basis sets for Pb [DEF2-TZVP] have been obtained from:
  Turbomole basis set library
  ftp://ftp.chemie.uni-karlsruhe.de/pub/basen/



INFO   : the flag for use of LIBINT has been found!

================================================================================
                                       INPUT FILE
================================================================================
NAME = PbMACl3_mp2_md_11.orca
|  1> ! RIJCOSX RI-B2PLYP D3BJ def2-TZVP ECP{def2-TZVP} TIGHTSCF Grid5 FinalGrid6 SlowConv MORead
|  2> %method
|  3>  RunTyp Gradient
|  4>  end
|  5> %maxcore 1000
|  6> %moinp "previous.gbw"
|  7> *xyz 0 1
|  8> C -1.578450 0.495269 -0.311252 
|  9> N -2.936890 0.725485 -0.680071 
| 10> H -3.391900 -0.111477 -0.220958 
| 11> H -2.976600 0.526799 -1.655590 
| 12> H -3.260810 1.594880 -0.441148 
| 13> H -1.294960 -0.444083 -0.807128 
| 14> H -1.449430 0.516402 0.773582 
| 15> H -0.845942 1.075250 -0.879260 
| 16> Pb -2.909370 -2.656850 -2.331330 
| 17> Cl -1.355360 -4.460870 -2.750550 
| 18> Cl -2.339330 -0.494115 -3.357110 
| 19> Cl -4.540780 -2.445900 -0.471451 
| 20> *
| 21> 
| 22>                          ****END OF INPUT****
================================================================================

                     *******************************
                     * Energy+Gradient Calculation *
                     *******************************

---------------------------------
CARTESIAN COORDINATES (ANGSTROEM)
---------------------------------
  C     -1.578450    0.495269   -0.311252
  N     -2.936890    0.725485   -0.680071
  H     -3.391900   -0.111477   -0.220958
  H     -2.976600    0.526799   -1.655590
  H     -3.260810    1.594880   -0.441148
  H     -1.294960   -0.444083   -0.807128
  H     -1.449430    0.516402    0.773582
  H     -0.845942    1.075250   -0.879260
  Pb    -2.909370   -2.656850   -2.331330
  Cl    -1.355360   -4.460870   -2.750550
  Cl    -2.339330   -0.494115   -3.357110
  Cl    -4.540780   -2.445900   -0.471451

----------------------------
CARTESIAN COORDINATES (A.U.)
----------------------------
  NO LB      ZA    FRAG    MASS        X           Y           Z
   0 C     6.0000    0    12.011         -2.982838216088000          0.935922772621044         -0.588181038635257
   1 N     7.0000    0    14.007         -5.549917785451985          1.370967964267859         -1.285147941621960
   2 H     1.0000    0     1.008         -6.409762073647494         -0.210661000231139         -0.417550107098972
   3 H     1.0000    0     1.008         -5.624958810229997          0.995505837623581         -3.128611690058685
   4 H     1.0000    0     1.008         -6.162037874751757          3.013886416468326         -0.833648904527092
   5 H     1.0000    0     1.008         -2.447119754382664         -0.839195250730151         -1.525250875019592
   6 H     1.0000    0     1.008         -2.739025750289480          0.975858355009202          1.461858122131070
   7 H     1.0000    0     1.008         -1.598598705181612          2.031928025498826         -1.661560600511600
   8 Pb   22.0000*   0   207.200  -5.497912522246472  -5.020718878908677  -4.405575227794632
   9 Cl   17.0000    0    35.453         -2.561259212871507         -8.429822619025293         -5.197786217657099
  10 Cl   17.0000    0    35.453         -4.420693036866002         -0.933742028662499         -6.344018501448374
  11 Cl   17.0000    0    35.453         -8.580830634386940         -4.622081150957990         -0.890913275563308
* core charge reduced due to ECP

--------------------------------
INTERNAL COORDINATES (ANGSTROEM)
--------------------------------
 C      0   0   0   0.000000     0.000     0.000
 N      1   0   0   1.426319     0.000     0.000
 H      2   1   0   1.057509    99.775     0.000
 H      2   1   3   0.996338   105.008   252.005
 H      2   1   3   0.958048   113.828   126.250
 H      1   2   3   1.099382   105.478    64.105
 H      1   2   3   1.092684   111.473   297.754
 H      1   2   3   1.093425   114.715   164.485
 Pb     6   1   2   3.134621   133.604   349.586
 Cl     9   6   1   2.417681   106.261   187.991
 Cl     4   2   1   2.084118   152.234    30.348
 Cl     9   6   1   2.482972    85.078   316.198

---------------------------
INTERNAL COORDINATES (A.U.)
---------------------------
 C      0   0   0   0.000000     0.000     0.000
 N      1   0   0   2.695352     0.000     0.000
 H      2   1   0   1.998401    99.775     0.000
 H      2   1   3   1.882807   105.008   252.005
 H      2   1   3   1.810448   113.828   126.250
 H      1   2   3   2.077532   105.478    64.105
 H      1   2   3   2.064873   111.473   297.754
 H      1   2   3   2.066274   114.715   164.485
 Pb     6   1   2   5.923575   133.604   349.586
 Cl     9   6   1   4.568755   106.261   187.991
 Cl     4   2   1   3.938413   152.234    30.348
 Cl     9   6   1   4.692136    85.078   316.198

---------------------
BASIS SET INFORMATION
---------------------
There are 5 groups of distinct atoms

 Group   1 Type C   : 11s6p2d1f contracted to 5s3p2d1f pattern {62111/411/11/1}
 Group   2 Type N   : 11s6p2d1f contracted to 5s3p2d1f pattern {62111/411/11/1}
 Group   3 Type H   : 5s1p contracted to 3s1p pattern {311/1}
 Group   4 Type Pb  : 10s9p8d2f contracted to 6s5p3d2f pattern {421111/33111/611/11}
 Group   5 Type Cl  : 14s9p3d1f contracted to 5s5p2d1f pattern {73211/51111/21/1}

Atom   0C    basis set group =>   1
Atom   1N    basis set group =>   2
Atom   2H    basis set group =>   3
Atom   3H    basis set group =>   3
Atom   4H    basis set group =>   3
Atom   5H    basis set group =>   3
Atom   6H    basis set group =>   3
Atom   7H    basis set group =>   3
Atom   8Pb   basis set group =>   4
Atom   9Cl   basis set group =>   5
Atom  10Cl   basis set group =>   5
Atom  11Cl   basis set group =>   5
-------------------------------
AUXILIARY BASIS SET INFORMATION
-------------------------------
There are 5 groups of distinct atoms

 Group   1 Type C   : 12s5p4d2f1g contracted to 6s4p3d1f1g pattern {711111/2111/211/2/1}
 Group   2 Type N   : 12s5p4d2f1g contracted to 6s4p3d1f1g pattern {711111/2111/211/2/1}
 Group   3 Type H   : 5s2p1d contracted to 3s1p1d pattern {311/2/1}
 Group   4 Type Pb  : 31s12p8d6f3g contracted to 31s12p8d6f3g pattern {1111111111111111111111111111111/111111111111/11111111/111111/111}
 Group   5 Type Cl  : 14s5p5d2f1g contracted to 8s4p3d1f1g pattern {71111111/2111/311/2/1}

Atom   0C    basis set group =>   1
Atom   1N    basis set group =>   2
Atom   2H    basis set group =>   3
Atom   3H    basis set group =>   3
Atom   4H    basis set group =>   3
Atom   5H    basis set group =>   3
Atom   6H    basis set group =>   3
Atom   7H    basis set group =>   3
Atom   8Pb   basis set group =>   4
Atom   9Cl   basis set group =>   5
Atom  10Cl   basis set group =>   5
Atom  11Cl   basis set group =>   5

-------------------------
ECP PARAMETER INFORMATION
-------------------------

 Group 1, Type Pb ECP SD(60,MDF) (replacing 60 core electrons, lmax=5)

Atom   8Pb   ECP group =>   1


------------------------------------------------------------------------------
                           ORCA GTO INTEGRAL CALCULATION
                           -- RI-GTO INTEGRALS CHOSEN --
------------------------------------------------------------------------------

                         BASIS SET STATISTICS AND STARTUP INFO

Gaussian basis set:
 # of primitive gaussian shells          ...  186
 # of primitive gaussian functions       ...  420
 # of contracted shells                  ...  101
 # of contracted basis functions         ...  259
 Highest angular momentum                ...    3
 Maximum contraction depth               ...    7
Auxiliary gaussian basis set:
 # of primitive gaussian shells          ...  237
 # of primitive gaussian functions       ...  643
 # of contracted shells                  ...  171
 # of contracted aux-basis functions     ...  493
 Highest angular momentum                ...    4
 Maximum contraction depth               ...    7
Ratio of auxiliary to basis functions    ...  1.90
Integral package used                  ... LIBINT
 One Electron integrals                  
   ECP integrals                         ... done
 Ordering auxiliary basis shells         ... done
 Integral threshhold             Thresh  ...  2.500e-11
 Primitive cut-off               TCut    ...  2.500e-12
 Pre-screening matrix                    ... done
 Shell pair data                         ... 
 Ordering of the shell pairs             ... done (   0.001 sec) 4300 of 5151 pairs
 Determination of significant pairs      ... done (   0.000 sec)
 Creation of shell pair data             ... done (   0.001 sec)
 Storage of shell pair data              ... done (   0.001 sec)
 Shell pair data done in (   0.002 sec)
 Computing two index integrals           ... done
 Cholesky decomposition of the V-matrix  ... done


Timings:
 Total evaluation time                   ...   1.193 sec (  0.020 min)
 One electron matrix time                ...   0.651 sec (  0.011 min) = 54.5%
 Schwartz matrix evaluation time         ...   0.348 sec (  0.006 min) = 29.1%
 Two index repulsion integral time       ...   0.007 sec (  0.000 min) =  0.6%
 Cholesky decomposition of V             ...   0.134 sec (  0.002 min) = 11.3%
 Three index repulsion integral time     ...   0.000 sec (  0.000 min) =  0.0%

-------------------------------------------------------------------------------
                                 ORCA SCF
-------------------------------------------------------------------------------

------------
SCF SETTINGS
------------
Hamiltonian:
 Density Functional     Method          .... DFT(GTOs)
 Exchange Functional    Exchange        .... B88
   X-Alpha parameter    XAlpha          ....  0.666667
   Becke's b parameter  XBeta           ....  0.004200
 Correlation Functional Correlation     .... LYP
 LDA part of GGA corr.  LDAOpt          .... VWN-3
 Gradients option       PostSCFGGA      .... off
 Hybrid DFT is turned on
   Fraction HF Exchange ScalHFX         ....  0.530000
   Scaling of DF-GGA-X  ScalDFX         ....  0.470000
   Scaling of DF-GGA-C  ScalDFC         ....  0.730000
   Scaling of DF-LDA-C  ScalLDAC        ....  0.730000
   Perturbative correction              ....  0.270000
 RI-approximation to the Coulomb term is turned on
   Number of auxiliary basis functions  .... 493
   RIJ-COSX (HFX calculated with COS-X)).... on


General Settings:
 Integral files         IntName         .... PbMACl3_mp2_md_11.orca
 Hartree-Fock type      HFTyp           .... RHF
 Total Charge           Charge          ....    0
 Multiplicity           Mult            ....    1
 Number of Electrons    NEL             ....   92
 Basis Dimension        Dim             ....  259
 Nuclear Repulsion      ENuc            ....    587.8158067731 Eh

Convergence Acceleration:
 DIIS                   CNVDIIS         .... on
   Start iteration      DIISMaxIt       ....     0
   Startup error        DIISStart       ....  0.200000
   # of expansion vecs  DIISMaxEq       ....     5
   Bias factor          DIISBfac        ....   1.050
   Max. coefficient     DIISMaxC        ....  10.000
 Newton-Raphson         CNVNR           .... off
 SOSCF                  CNVSOSCF        .... on
   Start iteration      SOSCFMaxIt      ....   150
   Startup grad/error   SOSCFStart      ....  0.001000
 Level Shifting         CNVShift        .... on
   Level shift para.    LevelShift      ....    0.2500
   Turn off err/grad.   ShiftErr        ....    0.0000
 Zerner damping         CNVZerner       .... off
 Static damping         CNVDamp         .... on
   Fraction old density DampFac         ....    0.8500
   Max. Damping (<1)    DampMax         ....    0.9800
   Min. Damping (>=0)   DampMin         ....    0.0000
   Turn off err/grad.   DampErr         ....    0.0300
 Fernandez-Rico         CNVRico         .... off

SCF Procedure:
 Maximum # iterations   MaxIter         ....   125
 SCF integral mode      SCFMode         .... Direct
   Integral package                     .... LIBINT
 Reset frequeny         DirectResetFreq ....    20
 Integral Threshold     Thresh          ....  2.500e-11 Eh
 Primitive CutOff       TCut            ....  2.500e-12 Eh

Convergence Tolerance:
 Convergence Check Mode ConvCheckMode   .... Total+1el-Energy
 Energy Change          TolE            ....  1.000e-08 Eh
 1-El. energy change                    ....  1.000e-05 Eh
 Orbital Gradient       TolG            ....  1.000e-05
 Orbital Rotation angle TolX            ....  1.000e-05
 DIIS Error             TolErr          ....  5.000e-07


Diagonalization of the overlap matrix:
Smallest eigenvalue                        ... 8.558e-04
Time for diagonalization                   ...    0.196 sec
Threshold for overlap eigenvalues          ... 1.000e-08
Number of eigenvalues below threshold      ... 0
Time for construction of square roots      ...    0.014 sec
Total time needed                          ...    0.211 sec

---------------------
INITIAL GUESS: MOREAD
---------------------
Guess MOs are being read from file: previous.gbw
Input geometry compatible with but different from current geometry
Input basis set matches current basis set (good)
MOs were renormalized
MOs were reorthogonalized (Schmidt)
                      ------------------
                      INITIAL GUESS DONE (   0.3 sec)
                      ------------------
-------------------
DFT GRID GENERATION
-------------------

General Integration Accuracy     IntAcc      ...  5.010
Radial Grid Type                 RadialGrid  ... Gauss-Chebyshev
Angular Grid (max. acc.)         AngularGrid ... Lebedev-434
Angular grid pruning method      GridPruning ... 3 (G Style)
Weight generation scheme         WeightScheme... Becke
Basis function cutoff            BFCut       ...    1.0000e-11
Integration weight cutoff        WCut        ...    1.0000e-14
Grids for H and He will be reduced by one unit

# of grid points (after initial pruning)     ... 115882 (   0.1 sec)
# of grid points (after weights+screening)   ... 108544 (   0.4 sec)
nearest neighbour list constructed           ...    0.0 sec
Grid point re-assignment to atoms done       ...    0.0 sec
Grid point division into batches done        ...    1.0 sec
Reduced shell lists constructed in    2.4 sec

Total number of grid points                  ...   108544
Total number of batches                      ...     1702
Average number of points per batch           ...       63
Average number of grid points per atom       ...     9045
Average number of shells per batch           ...    53.42 (52.90%)
Average number of basis functions per batch  ...   140.06 (54.08%)
Average number of large shells per batch     ...    40.33 (75.48%)
Average number of large basis fcns per batch ...   103.87 (74.16%)
Maximum spatial batch extension              ...  36.78, 32.84, 30.75 au
Average spatial batch extension              ...   2.49,  2.38,  2.42 au

Time for grid setup =    2.870 sec

--------------------
COSX GRID GENERATION
--------------------

General Integration Accuracy     IntAcc      ...  3.340
Radial Grid Type                 RadialGrid  ... Gauss-Chebyshev
Angular Grid (max. acc.)         AngularGrid ... Lebedev-50
Angular grid pruning method      GridPruning ... 3 (G Style)
Weight generation scheme         WeightScheme... Becke
Basis function cutoff            BFCut       ...    1.0000e-11
Integration weight cutoff        WCut        ...    1.0000e-14
Grids for H and He will be reduced by one unit

# of grid points (after initial pruning)     ...   6578 (   0.0 sec)
# of grid points (after weights+screening)   ...   6244 (   0.0 sec)
nearest neighbour list constructed           ...    0.0 sec
Grid point re-assignment to atoms done       ...    0.0 sec
Grid point division into batches done        ...    0.0 sec
Reduced shell lists constructed in    0.1 sec

Total number of grid points                  ...     6244
Total number of batches                      ...      103
Average number of points per batch           ...       60
Average number of grid points per atom       ...      520
Average number of shells per batch           ...    64.40 (63.77%)
Average number of basis functions per batch  ...   171.23 (66.11%)
Average number of large shells per batch     ...    50.14 (77.86%)
Average number of large basis fcns per batch ...   130.74 (76.35%)
Maximum spatial batch extension              ...  32.03, 25.01, 34.18 au
Average spatial batch extension              ...   6.94,  6.07,  6.57 au

Overlap Fitting                  UseSFitting ... on
Constructing numerical overlap ... done (      0.1 sec)
Inverting numerical overlap    ... done (      0.0 sec)
Obtaining analytic overlap     ... done (      0.0 sec)
Final contraction and storage  ... done (      0.0 sec)


General Integration Accuracy     IntAcc      ...  3.670
Radial Grid Type                 RadialGrid  ... Gauss-Chebyshev
Angular Grid (max. acc.)         AngularGrid ... Lebedev-50
Angular grid pruning method      GridPruning ... 3 (G Style)
Weight generation scheme         WeightScheme... Becke
Basis function cutoff            BFCut       ...    1.0000e-11
Integration weight cutoff        WCut        ...    1.0000e-14
Grids for H and He will be reduced by one unit

# of grid points (after initial pruning)     ...   8124 (   0.0 sec)
# of grid points (after weights+screening)   ...   7694 (   0.0 sec)
nearest neighbour list constructed           ...    0.0 sec
Grid point re-assignment to atoms done       ...    0.0 sec
Grid point division into batches done        ...    0.0 sec
Reduced shell lists constructed in    0.1 sec

Total number of grid points                  ...     7694
Total number of batches                      ...      126
Average number of points per batch           ...       61
Average number of grid points per atom       ...      641
Average number of shells per batch           ...    64.06 (63.42%)
Average number of basis functions per batch  ...   169.98 (65.63%)
Average number of large shells per batch     ...    49.57 (77.38%)
Average number of large basis fcns per batch ...   128.61 (75.66%)
Maximum spatial batch extension              ...  42.24, 25.37, 35.95 au
Average spatial batch extension              ...   6.35,  5.22,  5.99 au

Overlap Fitting                  UseSFitting ... on
Constructing numerical overlap ... done (      0.1 sec)
Inverting numerical overlap    ... done (      0.0 sec)
Obtaining analytic overlap     ... done (      0.0 sec)
Final contraction and storage  ... done (      0.0 sec)


General Integration Accuracy     IntAcc      ...  4.010
Radial Grid Type                 RadialGrid  ... Gauss-Chebyshev
Angular Grid (max. acc.)         AngularGrid ... Lebedev-110
Angular grid pruning method      GridPruning ... 3 (G Style)
Weight generation scheme         WeightScheme... Becke
Basis function cutoff            BFCut       ...    1.0000e-11
Integration weight cutoff        WCut        ...    1.0000e-14
Grids for H and He will be reduced by one unit

# of grid points (after initial pruning)     ...  15170 (   0.0 sec)
# of grid points (after weights+screening)   ...  14426 (   0.0 sec)
nearest neighbour list constructed           ...    0.0 sec
Grid point re-assignment to atoms done       ...    0.0 sec
Grid point division into batches done        ...    0.0 sec
Reduced shell lists constructed in    0.2 sec

Total number of grid points                  ...    14426
Total number of batches                      ...      232
Average number of points per batch           ...       62
Average number of grid points per atom       ...     1202
Average number of shells per batch           ...    60.55 (59.95%)
Average number of basis functions per batch  ...   160.67 (62.04%)
Average number of large shells per batch     ...    46.67 (77.08%)
Average number of large basis fcns per batch ...   121.86 (75.84%)
Maximum spatial batch extension              ...  39.26, 34.29, 29.85 au
Average spatial batch extension              ...   5.10,  4.54,  4.87 au

Overlap Fitting                  UseSFitting ... on
Constructing numerical overlap ... done (      0.2 sec)
Inverting numerical overlap    ... done (      0.0 sec)
Obtaining analytic overlap     ... done (      0.0 sec)
Final contraction and storage  ... done (      0.0 sec)

Time for X-Grid setup             =    0.964 sec
--------------
SCF ITERATIONS
--------------
ITER       Energy         Delta-E        Max-DP      RMS-DP      [F,P]     Damp
               ***  Starting incremental Fock matrix formation  ***
  0  -1663.8357370431   0.000000000000 0.08795937  0.00200023  0.7626871 0.8500
  1  -1664.5514915957  -0.715754552593 0.08492116  0.00182408  0.6489072 0.8500
                               ***Turning on DIIS***
  2  -1665.1636048419  -0.612113246201 0.07083472  0.00157337  0.5518088 0.8500
  3  -1665.6858644279  -0.522259586048 0.05766369  0.00134267  0.4692216 0.8500
  4  -1666.1375652679  -0.451700839926 0.04811305  0.00116360  0.3989398 0.8500
  5  -1666.5270774784  -0.389512210560 0.04057147  0.00101329  0.3391397 0.8500
  6  -1666.8652092662  -0.338131787737 0.03472811  0.00087789  0.2882826 0.8500
  7  -1667.1593929873  -0.294183721129 0.02988949  0.00075650  0.2450452 0.8500
  8  -1667.4149977900  -0.255604802748 0.02584945  0.00064887  0.2082938 0.8500
  9  -1667.6357373651  -0.220739575007 0.02213177  0.00055492  0.1770553 0.8500
 10  -1667.8257092318  -0.189971866712 0.01879164  0.00047420  0.1505020 0.8500
 11  -1667.9889383271  -0.163229095312 0.01593563  0.00040526  0.1279311 0.8500
 12  -1668.1290238991  -0.140085572024 0.01354032  0.00034639  0.1087452 0.8500
 13  -1668.2490989118  -0.120075012742 0.01152787  0.00029600  0.0924365 0.8500
 14  -1668.3518864113  -0.102787499458 0.00981454  0.00025284  0.0785737 0.8500
 15  -1668.4397746252  -0.087888213933 0.00834751  0.00021594  0.0667899 0.8500
 16  -1668.5148558654  -0.075081240189 0.00709592  0.00018444  0.0567734 0.8500
 17  -1668.5789503197  -0.064094454291 0.00603310  0.00015756  0.0482591 0.8500
 18  -1668.6336322984  -0.054681978666 0.00513178  0.00013462  0.0410218 0.8500
 19  -1668.6802590945  -0.046626796085 0.00436609  0.00011504  0.0348698 0.8500
               *** Restarting incremental Fock matrix formation ***
                                   *** Resetting DIIS ***
 20  -1668.7226093979  -0.042350303482 0.02370710  0.00062413  0.0296404 0.0000
 21  -1668.9494705085  -0.226861110528 0.00477811  0.00007970  0.0098709 0.0000
 22  -1668.9496645452  -0.000194036723 0.00186446  0.00003366  0.0050721 0.0000
                      *** Initiating the SOSCF procedure ***
                           *** Shutting down DIIS ***
                      *** Re-Reading the Fockian *** 
                      *** Removing any level shift *** 
ITER      Energy       Delta-E        Grad      Rot      Max-DP    RMS-DP
 23  -1668.94971628  -0.0000517388  0.000552  0.000552  0.000640  0.000015
               *** Restarting incremental Fock matrix formation ***
 24  -1668.94714117   0.0025751156  0.000485  0.002471  0.001674  0.000038
 25  -1668.94714265  -0.0000014799  0.000149  0.001600  0.000703  0.000020
 26  -1668.94714167   0.0000009800  0.000131  0.000284  0.000445  0.000009
 27  -1668.94714304  -0.0000013732  0.000029  0.000074  0.000128  0.000002
 28  -1668.94714330  -0.0000002605  0.000006  0.000040  0.000050  0.000001
 29  -1668.94714333  -0.0000000264  0.000004  0.000002  0.000014  0.000000
                  ***Gradient check signals convergence***
              ***Rediagonalizing the Fockian in SOSCF/NRSCF***

               *****************************************************
               *                     SUCCESS                       *
               *           SCF CONVERGED AFTER  30 CYCLES          *
               *****************************************************

Old exchange energy                            =    -59.260160628 Eh
New exchange energy                            =    -59.263845901 Eh
Exchange energy change after final integration =     -0.003685273 Eh
Total energy after final integration           =  -1668.950828579 Eh
Final COS-X integration done in                =    24.008 sec

----------------
TOTAL SCF ENERGY
----------------

Total Energy       :        -1668.95082858 Eh          -45414.46087 eV

Components:
Nuclear Repulsion  :          587.81580677 Eh           15995.28129 eV
Electronic Energy  :        -2256.76663535 Eh          -61409.74216 eV

One Electron Energy:        -3546.49313632 Eh          -96504.98446 eV
Two Electron Energy:         1289.72650097 Eh           35095.24230 eV

Virial components:
Potential Energy   :        -3207.27837559 Eh          -87274.48155 eV
Kinetic Energy     :         1538.32754701 Eh           41860.02068 eV
Virial Ratio       :            2.08491253


DFT components:
N(Alpha)           :       46.000031934943 electrons
N(Beta)            :       46.000031934943 electrons
N(Total)           :       92.000063869886 electrons
E(X)               :      -52.630338712854 Eh       
E(C)               :       -2.612237884007 Eh       
E(XC)              :      -55.242576596860 Eh       

---------------
SCF CONVERGENCE
---------------

  Last Energy change         ...    2.1896e-08  Tolerance :   1.0000e-08
  Last MAX-Density change    ...    1.9273e-13  Tolerance :   1.0000e-07
  Last RMS-Density change    ...    1.9309e-15  Tolerance :   5.0000e-09
  Last Orbital Gradient      ...    6.6445e-07  Tolerance :   1.0000e-05
  Last Orbital Rotation      ...    1.5071e-06  Tolerance :   1.0000e-05

             **** THE GBW FILE WAS UPDATED (PbMACl3_mp2_md_11.orca.gbw) ****
             **** DENSITY FILE WAS UPDATED (PbMACl3_mp2_md_11.orca.scfp.tmp) ****
             **** ENERGY FILE WAS UPDATED (PbMACl3_mp2_md_11.orca.en.tmp) ****
----------------
ORBITAL ENERGIES
----------------

  NO   OCC          E(Eh)            E(eV) 
   0   2.0000    -102.860290     -2798.9708 
   1   2.0000    -102.838987     -2798.3911 
   2   2.0000    -102.821068     -2797.9035 
   3   2.0000     -15.006676      -408.3524 
   4   2.0000     -10.725508      -291.8559 
   5   2.0000      -9.869961      -268.5753 
   6   2.0000      -9.847494      -267.9639 
   7   2.0000      -9.829657      -267.4786 
   8   2.0000      -7.506244      -204.2553 
   9   2.0000      -7.505507      -204.2352 
  10   2.0000      -7.505029      -204.2222 
  11   2.0000      -7.483771      -203.6438 
  12   2.0000      -7.483125      -203.6262 
  13   2.0000      -7.482637      -203.6129 
  14   2.0000      -7.466209      -203.1659 
  15   2.0000      -7.465063      -203.1347 
  16   2.0000      -7.464695      -203.1247 
  17   2.0000      -5.777057      -157.2017 
  18   2.0000      -3.551072       -96.6296 
  19   2.0000      -3.547458       -96.5312 
  20   2.0000      -3.545501       -96.4780 
  21   2.0000      -1.215890       -33.0861 
  22   2.0000      -0.958230       -26.0748 
  23   2.0000      -0.952860       -25.9286 
  24   2.0000      -0.948974       -25.8229 
  25   2.0000      -0.940703       -25.5978 
  26   2.0000      -0.939672       -25.5698 
  27   2.0000      -0.887599       -24.1528 
  28   2.0000      -0.886684       -24.1279 
  29   2.0000      -0.857336       -23.3293 
  30   2.0000      -0.840317       -22.8662 
  31   2.0000      -0.763125       -20.7657 
  32   2.0000      -0.727191       -19.7879 
  33   2.0000      -0.633488       -17.2381 
  34   2.0000      -0.561968       -15.2919 
  35   2.0000      -0.548172       -14.9165 
  36   2.0000      -0.510479       -13.8908 
  37   2.0000      -0.395836       -10.7712 
  38   2.0000      -0.390260       -10.6195 
  39   2.0000      -0.373555       -10.1649 
  40   2.0000      -0.360690        -9.8149 
  41   2.0000      -0.347596        -9.4586 
  42   2.0000      -0.340149        -9.2559 
  43   2.0000      -0.324054        -8.8180 
  44   2.0000      -0.320467        -8.7204 
  45   2.0000      -0.230143        -6.2625 
  46   0.0000      -0.033933        -0.9234 
  47   0.0000       0.003588         0.0976 
  48   0.0000       0.055743         1.5168 
  49   0.0000       0.057608         1.5676 
  50   0.0000       0.075307         2.0492 
  51   0.0000       0.090062         2.4507 
  52   0.0000       0.094381         2.5682 
  53   0.0000       0.107728         2.9314 
  54   0.0000       0.131190         3.5699 
  55   0.0000       0.136630         3.7179 
  56   0.0000       0.150003         4.0818 
  57   0.0000       0.163127         4.4389 
  58   0.0000       0.169752         4.6192 
  59   0.0000       0.201133         5.4731 
  60   0.0000       0.209133         5.6908 
  61   0.0000       0.233959         6.3664 
  62   0.0000       0.238807         6.4983 
  63   0.0000       0.252209         6.8630 
  64   0.0000       0.264392         7.1945 
  65   0.0000       0.287454         7.8220 
  66   0.0000       0.310410         8.4467 
  67   0.0000       0.317512         8.6399 
  68   0.0000       0.329700         8.9716 
  69   0.0000       0.364674         9.9233 
  70   0.0000       0.389986        10.6121 
  71   0.0000       0.421830        11.4786 
  72   0.0000       0.426427        11.6037 
  73   0.0000       0.437260        11.8985 
  74   0.0000       0.439771        11.9668 
  75   0.0000       0.449751        12.2384 
  76   0.0000       0.453630        12.3439 
  77   0.0000       0.458445        12.4749 
  78   0.0000       0.474026        12.8989 
  79   0.0000       0.481566        13.1041 
  80   0.0000       0.483866        13.1667 
  81   0.0000       0.485827        13.2200 
  82   0.0000       0.497752        13.5445 
  83   0.0000       0.505056        13.7433 
  84   0.0000       0.514814        14.0088 
  85   0.0000       0.522568        14.2198 
  86   0.0000       0.534915        14.5558 
  87   0.0000       0.547143        14.8885 
  88   0.0000       0.556836        15.1523 
  89   0.0000       0.563835        15.3427 
  90   0.0000       0.574801        15.6411 
  91   0.0000       0.585722        15.9383 
  92   0.0000       0.598336        16.2816 
  93   0.0000       0.608018        16.5450 
  94   0.0000       0.629469        17.1287 
  95   0.0000       0.632965        17.2239 
  96   0.0000       0.639513        17.4020 
  97   0.0000       0.652653        17.7596 
  98   0.0000       0.666310        18.1312 
  99   0.0000       0.711134        19.3510 
 100   0.0000       0.740524        20.1507 
 101   0.0000       0.745868        20.2961 
 102   0.0000       0.752153        20.4671 
 103   0.0000       0.779981        21.2244 
 104   0.0000       0.797987        21.7143 
 105   0.0000       0.806416        21.9437 
 106   0.0000       0.840117        22.8607 
 107   0.0000       0.879875        23.9426 
 108   0.0000       0.882531        24.0149 
 109   0.0000       0.904276        24.6066 
 110   0.0000       0.915837        24.9212 
 111   0.0000       0.922669        25.1071 
 112   0.0000       0.926821        25.2201 
 113   0.0000       0.935408        25.4537 
 114   0.0000       0.965730        26.2788 
 115   0.0000       0.995229        27.0816 
 116   0.0000       1.003450        27.3053 
 117   0.0000       1.050045        28.5732 
 118   0.0000       1.075563        29.2675 
 119   0.0000       1.093730        29.7619 
 120   0.0000       1.124509        30.5994 
 121   0.0000       1.142971        31.1018 
 122   0.0000       1.147959        31.2376 
 123   0.0000       1.210992        32.9528 
 124   0.0000       1.235217        33.6120 
 125   0.0000       1.261827        34.3361 
 126   0.0000       1.325294        36.0631 
 127   0.0000       1.342299        36.5258 
 128   0.0000       1.364932        37.1417 
 129   0.0000       1.375983        37.4424 
 130   0.0000       1.383519        37.6475 
 131   0.0000       1.516455        41.2649 
 132   0.0000       1.553863        42.2828 
 133   0.0000       1.580840        43.0168 
 134   0.0000       1.592999        43.3477 
 135   0.0000       1.621413        44.1209 
 136   0.0000       1.730878        47.0996 
 137   0.0000       1.739175        47.3254 
 138   0.0000       1.768357        48.1194 
 139   0.0000       1.846212        50.2380 
 140   0.0000       1.875787        51.0428 
 141   0.0000       1.898025        51.6479 
 142   0.0000       1.930695        52.5369 
 143   0.0000       1.933813        52.6217 
 144   0.0000       1.949363        53.0449 
 145   0.0000       1.951329        53.0984 
 146   0.0000       1.958106        53.2828 
 147   0.0000       1.980390        53.8892 
 148   0.0000       1.986590        54.0579 
 149   0.0000       2.000206        54.4284 
 150   0.0000       2.014185        54.8088 
 151   0.0000       2.025483        55.1162 
 152   0.0000       2.043213        55.5987 
 153   0.0000       2.055796        55.9411 
 154   0.0000       2.058235        56.0074 
 155   0.0000       2.081551        56.6419 
 156   0.0000       2.086169        56.7675 
 157   0.0000       2.097050        57.0636 
 158   0.0000       2.122962        57.7687 
 159   0.0000       2.134202        58.0746 
 160   0.0000       2.144850        58.3643 
 161   0.0000       2.155809        58.6625 
 162   0.0000       2.157520        58.7091 
 163   0.0000       2.174236        59.1640 
 164   0.0000       2.186481        59.4972 
 165   0.0000       2.195299        59.7371 
 166   0.0000       2.208130        60.0863 
 167   0.0000       2.240015        60.9539 
 168   0.0000       2.245812        61.1116 
 169   0.0000       2.252851        61.3032 
 170   0.0000       2.262382        61.5625 
 171   0.0000       2.265648        61.6514 
 172   0.0000       2.270987        61.7967 
 173   0.0000       2.276380        61.9435 
 174   0.0000       2.281195        62.0745 
 175   0.0000       2.282463        62.1090 
 176   0.0000       2.289433        62.2986 
 177   0.0000       2.303333        62.6769 
 178   0.0000       2.315041        62.9955 
 179   0.0000       2.325113        63.2695 
 180   0.0000       2.336558        63.5810 
 181   0.0000       2.352727        64.0210 
 182   0.0000       2.365801        64.3767 
 183   0.0000       2.375459        64.6395 
 184   0.0000       2.391968        65.0888 
 185   0.0000       2.411813        65.6288 
 186   0.0000       2.418434        65.8089 
 187   0.0000       2.421404        65.8898 
 188   0.0000       2.429170        66.1011 
 189   0.0000       2.444953        66.5305 
 190   0.0000       2.456180        66.8361 
 191   0.0000       2.465888        67.1002 
 192   0.0000       2.484292        67.6010 
 193   0.0000       2.499404        68.0122 
 194   0.0000       2.505127        68.1680 
 195   0.0000       2.516621        68.4807 
 196   0.0000       2.542343        69.1807 
 197   0.0000       2.566854        69.8477 
 198   0.0000       2.594054        70.5878 
 199   0.0000       2.605308        70.8940 
 200   0.0000       2.663914        72.4888 
 201   0.0000       2.672329        72.7178 
 202   0.0000       2.705521        73.6210 
 203   0.0000       2.717270        73.9407 
 204   0.0000       2.758608        75.0655 
 205   0.0000       2.761483        75.1438 
 206   0.0000       2.802257        76.2533 
 207   0.0000       2.844593        77.4053 
 208   0.0000       2.866314        77.9964 
 209   0.0000       2.914816        79.3162 
 210   0.0000       2.939584        79.9901 
 211   0.0000       2.990064        81.3638 
 212   0.0000       3.051880        83.0459 
 213   0.0000       3.073022        83.6212 
 214   0.0000       3.148279        85.6690 
 215   0.0000       3.188154        86.7541 
 216   0.0000       3.327362        90.5421 
 217   0.0000       3.360397        91.4411 
 218   0.0000       3.508448        95.4697 
 219   0.0000       3.555675        96.7548 
 220   0.0000       3.630932        98.8027 
 221   0.0000       3.647486        99.2531 
 222   0.0000       3.804155       103.5163 
 223   0.0000       3.927308       106.8675 
 224   0.0000       4.027305       109.5885 
 225   0.0000       4.053442       110.2998 
 226   0.0000       4.287171       116.6598 
 227   0.0000       4.418170       120.2245 
 228   0.0000       4.574332       124.4739 
 229   0.0000       4.815284       131.0305 
 230   0.0000       4.833810       131.5347 
 231   0.0000       4.921581       133.9230 
 232   0.0000       4.945019       134.5608 
 233   0.0000       5.005985       136.2198 
 234   0.0000       5.135550       139.7454 
 235   0.0000       5.208941       141.7425 
 236   0.0000       5.275363       143.5499 
 237   0.0000       5.446403       148.2042 
 238   0.0000       5.619241       152.9073 
 239   0.0000       5.995194       163.1375 
 240   0.0000      11.062346       301.0217 
 241   0.0000      11.071572       301.2728 
 242   0.0000      11.084931       301.6363 
 243   0.0000      11.097103       301.9675 
 244   0.0000      11.109038       302.2923 
 245   0.0000      11.139100       303.1103 
 246   0.0000      11.209129       305.0159 
 247   0.0000      11.223129       305.3969 
 248   0.0000      11.269271       306.6525 
 249   0.0000      22.723627       618.3413 
 250   0.0000      25.229680       686.5345 
 251   0.0000      25.309019       688.6934 
 252   0.0000      25.440094       692.2602 
 253   0.0000      32.332421       879.8099 
 254   0.0000      35.660675       970.3763 
 255   0.0000      35.779552       973.6111 
 256   0.0000      35.872916       976.1517 
 257   0.0000      35.946942       978.1660 
 258   0.0000     123.668542      3365.1921 

                    ********************************
                    * MULLIKEN POPULATION ANALYSIS *
                    ********************************

-----------------------
MULLIKEN ATOMIC CHARGES
-----------------------
   0 C :   -0.314158
   1 N :   -0.232224
   2 H :    0.299764
   3 H :    0.275613
   4 H :    0.269328
   5 H :    0.173142
   6 H :    0.165267
   7 H :    0.177155
   8 Pb:    0.833190
   9 Cl:   -0.526953
  10 Cl:   -0.552554
  11 Cl:   -0.567570
Sum of atomic charges:   -0.0000000

--------------------------------
MULLIKEN REDUCED ORBITAL CHARGES
--------------------------------
  0 C s       :     3.267782  s :     3.267782
      pz      :     1.080358  p :     2.968974
      px      :     0.747432
      py      :     1.141184
      dz2     :     0.015903  d :     0.070386
      dxz     :     0.015009
      dyz     :     0.008307
      dx2y2   :     0.013272
      dxy     :     0.017896
      f0      :     0.001615  f :     0.007015
      f+1     :     0.001143
      f-1     :     0.000134
      f+2     :     0.000969
      f-2     :     0.000416
      f+3     :     0.001252
      f-3     :     0.001485
  1 N s       :     3.406830  s :     3.406830
      pz      :     1.317270  p :     3.776389
      px      :     1.227515
      py      :     1.231604
      dz2     :     0.009014  d :     0.046316
      dxz     :     0.009428
      dyz     :     0.003333
      dx2y2   :     0.008399
      dxy     :     0.016141
      f0      :     0.000709  f :     0.002690
      f+1     :     0.000217
      f-1     :     0.000177
      f+2     :     0.000284
      f-2     :     0.000095
      f+3     :     0.000701
      f-3     :     0.000506
  2 H s       :     0.666644  s :     0.666644
      pz      :     0.008070  p :     0.033592
      px      :     0.008256
      py      :     0.017266
  3 H s       :     0.678988  s :     0.678988
      pz      :     0.029959  p :     0.045399
      px      :     0.006952
      py      :     0.008487
  4 H s       :     0.692315  s :     0.692315
      pz      :     0.008382  p :     0.038358
      px      :     0.009595
      py      :     0.020381
  5 H s       :     0.802877  s :     0.802877
      pz      :     0.006756  p :     0.023981
      px      :     0.004911
      py      :     0.012314
  6 H s       :     0.812997  s :     0.812997
      pz      :     0.014604  p :     0.021736
      px      :     0.003032
      py      :     0.004101
  7 H s       :     0.799723  s :     0.799723
      pz      :     0.006639  p :     0.023122
      px      :     0.008701
      py      :     0.007782
  8 Pbs       :     3.989199  s :     3.989199
      pz      :     2.277480  p :     6.904967
      px      :     2.308826
      py      :     2.318660
      dz2     :     2.032414  d :    10.194538
      dxz     :     2.044730
      dyz     :     2.033722
      dx2y2   :     2.040451
      dxy     :     2.043221
      f0      :     0.008170  f :     0.078106
      f+1     :     0.010412
      f-1     :     0.008723
      f+2     :     0.012182
      f-2     :     0.010628
      f+3     :     0.015487
      f-3     :     0.012503
  9 Cls       :     5.947024  s :     5.947024
      pz      :     3.885340  p :    11.556859
      px      :     3.862970
      py      :     3.808550
      dz2     :     0.003231  d :     0.021949
      dxz     :     0.001962
      dyz     :     0.003028
      dx2y2   :     0.003989
      dxy     :     0.009740
      f0      :     0.000102  f :     0.001120
      f+1     :     0.000096
      f-1     :     0.000134
      f+2     :     0.000032
      f-2     :     0.000183
      f+3     :     0.000319
      f-3     :     0.000255
 10 Cls       :     5.950711  s :     5.950711
      pz      :     3.857571  p :    11.576898
      px      :     3.918754
      py      :     3.800572
      dz2     :     0.004838  d :     0.023978
      dxz     :     0.002829
      dyz     :     0.007237
      dx2y2   :     0.005499
      dxy     :     0.003576
      f0      :     0.000113  f :     0.000967
      f+1     :     0.000057
      f-1     :     0.000123
      f+2     :     0.000219
      f-2     :     0.000116
      f+3     :     0.000174
      f-3     :     0.000164
 11 Cls       :     5.950705  s :     5.950705
      pz      :     3.875786  p :    11.596008
      px      :     3.828724
      py      :     3.891497
      dz2     :     0.004330  d :     0.020042
      dxz     :     0.009000
      dyz     :     0.001540
      dx2y2   :     0.002848
      dxy     :     0.002324
      f0      :     0.000080  f :     0.000815
      f+1     :     0.000309
      f-1     :     0.000031
      f+2     :     0.000216
      f-2     :     0.000106
      f+3     :     0.000043
      f-3     :     0.000030


                     *******************************
                     * LOEWDIN POPULATION ANALYSIS *
                     *******************************

----------------------
LOEWDIN ATOMIC CHARGES
----------------------
   0 C :   -0.320846
   1 N :    0.157810
   2 H :    0.219207
   3 H :    0.145323
   4 H :    0.172028
   5 H :    0.134781
   6 H :    0.126613
   7 H :    0.133763
   8 Pb:   -0.167006
   9 Cl:   -0.171783
  10 Cl:   -0.180659
  11 Cl:   -0.249231

-------------------------------
LOEWDIN REDUCED ORBITAL CHARGES
-------------------------------
  0 C s       :     2.837384  s :     2.837384
      pz      :     1.083519  p :     3.108984
      px      :     0.894989
      py      :     1.130476
      dz2     :     0.071047  d :     0.330615
      dxz     :     0.079774
      dyz     :     0.023568
      dx2y2   :     0.075384
      dxy     :     0.080841
      f0      :     0.005706  f :     0.043863
      f+1     :     0.006462
      f-1     :     0.000612
      f+2     :     0.008944
      f-2     :     0.005904
      f+3     :     0.007523
      f-3     :     0.008712
  1 N s       :     2.945117  s :     2.945117
      pz      :     1.253329  p :     3.706433
      px      :     1.261149
      py      :     1.191955
      dz2     :     0.039099  d :     0.177703
      dxz     :     0.034269
      dyz     :     0.012838
      dx2y2   :     0.033388
      dxy     :     0.058109
      f0      :     0.001890  f :     0.012938
      f+1     :     0.001475
      f-1     :     0.000757
      f+2     :     0.002256
      f-2     :     0.001676
      f+3     :     0.002117
      f-3     :     0.002766
  2 H s       :     0.679716  s :     0.679716
      pz      :     0.025327  p :     0.101076
      px      :     0.024277
      py      :     0.051472
  3 H s       :     0.711758  s :     0.711758
      pz      :     0.094506  p :     0.142919
      px      :     0.022350
      py      :     0.026063
  4 H s       :     0.710030  s :     0.710030
      pz      :     0.028919  p :     0.117941
      px      :     0.028683
      py      :     0.060339
  5 H s       :     0.800066  s :     0.800066
      pz      :     0.019265  p :     0.065153
      px      :     0.012300
      py      :     0.033588
  6 H s       :     0.810793  s :     0.810793
      pz      :     0.039653  p :     0.062594
      px      :     0.009395
      py      :     0.013547
  7 H s       :     0.801695  s :     0.801695
      pz      :     0.019616  p :     0.064542
      px      :     0.022745
      py      :     0.022182
  8 Pbs       :     3.721768  s :     3.721768
      pz      :     2.412699  p :     7.392191
      px      :     2.460080
      py      :     2.519411
      dz2     :     2.119367  d :    10.796548
      dxz     :     2.188439
      dyz     :     2.145044
      dx2y2   :     2.162239
      dxy     :     2.181458
      f0      :     0.025673  f :     0.256500
      f+1     :     0.037512
      f-1     :     0.025081
      f+2     :     0.047967
      f-2     :     0.029915
      f+3     :     0.052784
      f-3     :     0.037569
  9 Cls       :     5.721510  s :     5.721510
      pz      :     3.823582  p :    11.399452
      px      :     3.810312
      py      :     3.765558
      dz2     :     0.009074  d :     0.047761
      dxz     :     0.002600
      dyz     :     0.003510
      dx2y2   :     0.003533
      dxy     :     0.029044
      f0      :     0.000207  f :     0.003059
      f+1     :     0.000338
      f-1     :     0.000422
      f+2     :     0.000031
      f-2     :     0.000361
      f+3     :     0.001047
      f-3     :     0.000653
 10 Cls       :     5.719939  s :     5.719939
      pz      :     3.781978  p :    11.402971
      px      :     3.861671
      py      :     3.759322
      dz2     :     0.006780  d :     0.054730
      dxz     :     0.004050
      dyz     :     0.018848
      dx2y2   :     0.016262
      dxy     :     0.008790
      f0      :     0.000475  f :     0.003018
      f+1     :     0.000107
      f-1     :     0.000249
      f+2     :     0.000771
      f-2     :     0.000409
      f+3     :     0.000549
      f-3     :     0.000459
 11 Cls       :     5.746572  s :     5.746572
      pz      :     3.830759  p :    11.453665
      px      :     3.783452
      py      :     3.839454
      dz2     :     0.008290  d :     0.046466
      dxz     :     0.027866
      dyz     :     0.002070
      dx2y2   :     0.005841
      dxy     :     0.002398
      f0      :     0.000081  f :     0.002528
      f+1     :     0.001235
      f-1     :     0.000065
      f+2     :     0.000801
      f-2     :     0.000174
      f+3     :     0.000121
      f-3     :     0.000050


                      *****************************
                      * MAYER POPULATION ANALYSIS *
                      *****************************

  NA   - Mulliken gross atomic population
  ZA   - Total nuclear charge
  QA   - Mulliken gross atomic charge
  VA   - Mayer's total valence
  BVA  - Mayer's bonded valence
  FA   - Mayer's free valence

  ATOM       NA         ZA         QA         VA         BVA        FA
  0 C      6.3142     6.0000    -0.3142     3.8356     3.8356    -0.0000
  1 N      7.2322     7.0000    -0.2322     3.3946     3.3946    -0.0000
  2 H      0.7002     1.0000     0.2998     0.9737     0.9737    -0.0000
  3 H      0.7244     1.0000     0.2756     1.0127     1.0127     0.0000
  4 H      0.7307     1.0000     0.2693     0.9267     0.9267    -0.0000
  5 H      0.8269     1.0000     0.1731     0.9620     0.9620    -0.0000
  6 H      0.8347     1.0000     0.1653     0.9620     0.9620    -0.0000
  7 H      0.8228     1.0000     0.1772     0.9653     0.9653    -0.0000
  8 Pb    21.1668    22.0000     0.8332     1.9049     1.9049     0.0000
  9 Cl    17.5270    17.0000    -0.5270     0.8183     0.8183    -0.0000
 10 Cl    17.5526    17.0000    -0.5526     0.7503     0.7503     0.0000
 11 Cl    17.5676    17.0000    -0.5676     0.7320     0.7320     0.0000

  Mayer bond orders larger than 0.1
B(  0-C ,  1-N ) :   0.9092 B(  0-C ,  5-H ) :   0.9631 B(  0-C ,  6-H ) :   0.9564 
B(  0-C ,  7-H ) :   0.9714 B(  1-N ,  2-H ) :   0.8260 B(  1-N ,  3-H ) :   0.8112 
B(  1-N ,  4-H ) :   0.9054 B(  2-H , 11-Cl) :   0.1444 B(  3-H , 10-Cl) :   0.2022 
B(  8-Pb,  9-Cl) :   0.7920 B(  8-Pb, 10-Cl) :   0.5085 B(  8-Pb, 11-Cl) :   0.5838 


-------
TIMINGS
-------

Total SCF time: 0 days 0 hours 7 min 16 sec 

Total time                  ....     436.554 sec
Sum of individual times     ....     411.761 sec  ( 94.3%)

Fock matrix formation       ....     406.427 sec  ( 93.1%)
  Coulomb formation         ....     337.347 sec  ( 83.0% of F)
  Split-RI-J                ....      23.978 sec  (  5.9% of F)
  Chain of spheres X        ....     337.306 sec  ( 83.0% of F)
  COS-X 1 center corr.      ....       0.000 sec  (  0.0% of F)
  XC integration            ....      69.075 sec  ( 17.0% of F)
    Basis function eval.    ....      20.965 sec  ( 30.4% of XC)
    Density eval.           ....      18.473 sec  ( 26.7% of XC)
    XC-Functional eval.     ....       4.205 sec  (  6.1% of XC)
    XC-Potential eval.      ....      24.347 sec  ( 35.2% of XC)
Diagonalization             ....       0.749 sec  (  0.2%)
Density matrix formation    ....       0.066 sec  (  0.0%)
Population analysis         ....       0.067 sec  (  0.0%)
Initial guess               ....       0.272 sec  (  0.1%)
Orbital Transformation      ....       0.000 sec  (  0.0%)
Orbital Orthonormalization  ....       0.266 sec  (  0.1%)
DIIS solution               ....       0.214 sec  (  0.0%)
SOSCF solution              ....       0.133 sec  (  0.0%)
Grid generation             ....       3.834 sec  (  0.9%)

------------------------------------------------------------------------------
                              ORCA MP2 CALCULATION
------------------------------------------------------------------------------


----------------------
RI-MP2 ENERGY+GRADIENT
----------------------
Dimension of the basis                    ...  259
Memory devoted to MP2                     ... 1000 MB   
Data format for buffers                   ... DOUBLE
Compression type for matrix containers    ... UNCOMPRESSED
Overall scaling of the MP2 energy         ...   2.700e-01 Eh
Calculating two index integrals           ... done (    0.019 sec)
Cholesky decomposition of the V-matrix    ... done
Cholesky decomposition of V**-1           ... done (    0.044 sec)

-----------------
RI-TRANSFORMATION (AUX index driven)
-----------------

Dimension of the orbital-basis         ... 259
Dimension of the aux-basis             ... 493
Transformation of internal MOs         ...    0-  45
Transformation of internal/external MOs...    0-  45 to   46- 258
Number Format for Storage              ... Double (8 Byte)
Integral mode                          ... Direct

First Phase: integral generation and transformation of MO indices
  Aux angular momentum 0               ... done (    0.756 sec)
  Aux angular momentum 1               ... done (    0.324 sec)
  Aux angular momentum 2               ... done (    0.386 sec)
  Aux angular momentum 3               ... done (    0.223 sec)
  Aux angular momentum 4               ... done (    0.196 sec)
Closing buffer VIJ ( 0.00 GB; CompressionRatio= 1.95)
Closing buffer VIA ( 0.04 GB; CompressionRatio= 1.00)
  Phase 1 completed in     2.061 sec
Second Phase: sorting and transformation of aux index

IJ-Transformation
Memory available                       ... 990 MB 
Max. # MO pairs treated in a batch     ... 46    
# of internal orbitals                 ... 46
# batches for internal orbitals        ... 1
Closing buffer IJV ( 0.00 GB; CompressionRatio= 1.00)
(ij|v) transformation done in     0.109 sec

IA-Transformation
Memory available                       ... 990 MB 
Max. # MO pairs treated in a batch     ... 46    
# of internal orbitals                 ... 46
# batches for internal orbitals        ... 1
Closing buffer IAV ( 0.04 GB; CompressionRatio= 1.00)
(ia|v) transformation done in     0.470 sec

  Phase 2 completed in     0.596 sec
RI-Integral transformation completed in     2.657 sec
Opening buffers                              ... done

Starting loop over batches of integrals:

Operator 0  - window                       ... (  0- 45)x( 46-258)
Operator 0  - Memory available             ...  1000 MB
Operator 0  - Memory needed per MO         ...   1.6 MB
Operator 0  - Number of orbitals per batch ... 46
Operator 0  - Number of batches            ... 1

OPERATOR  0   PASS   0:  MOs     0 ...   45
  Reading integrals       ... ok
  Internal MO   2
  Internal MO   5
  Internal MO   8
  Internal MO  11
  Internal MO  14
  Internal MO  17
  Internal MO  20
  Internal MO  23
  Internal MO  26
  Internal MO  29
  Internal MO  32
  Internal MO  35
  Internal MO  38
  Internal MO  41
  Internal MO  44
Closing buffer GIPV ( 0.04 GB; CompressionRatio= 1.00)
Time spent in pair loops =    50.737 sec

-----------------------------------------------
 RI-MP2 CORRELATION ENERGY:     -0.582388280 Eh
-----------------------------------------------


---------------------
MP2 DENSITY FORMATION
---------------------

Completing the external part of the density      ... done
Storing the unrelaxed density                    ... done

Calculating the xc-kernel                        ... done
Calculating G(D)                                 ... done
Completing the Lagrangian                        ... done
Solving the Z-vector equations                   ... 

------------------------------------------------------------------------------
                           ORCA CP-SCF CALCULATION
------------------------------------------------------------------------------

Input orbitals are from        ... PbMACl3_mp2_md_11.orca.gbw
Input Perturbation             ... PbMACl3_mp2_md_11.orca.pin.tmp
Wavefunction output            ... PbMACl3_mp2_md_11.orca.pout.tmp
Perturbation mode              ... Real perturbation
Solver                         ... DIIS
   MaxDIIS                     ... 20
   Levelshift                  ...    3.000e-01 Eh
Max. number of iterations      ... 128
Convergence tolerance          ... 1.000e-08
Integral handling              ... Direct
COSX GridX                     ... 1
Number of perturbations        ... 1
Number of operators            ... 1
Orbital ranges used for CP-SCF:
 Operator 0:  Orbitals   0... 45  to  46...258
DFT calculation                         ... on
Exchange functional (SCF)               ... B88
Exchange functional (CP-SCF)            ... B88
   X-Alpha parameter    XAlpha (SCF)    ...  0.666667
   X-Alpha parameter    XAlpha (CP-SCF) ...  0.666667
   Becke's b parameter  XBeta (SCF)     ...  0.004200
   Becke's b parameter  XBeta (CP-SCF)  ...  0.004200
Correlation functional (SCF)            ... LYP
Correlation functional (CP-SCF)         ... LYP
 LDA part of GGA corr.  LDAOpt (SCF)    ... VWN-3
 LDA part of GGA corr.  LDAOpt (CP-SCF) ... VWN-3
Hybrid DFT                              ... on
   Exchange mixing (SCF)                ...  0.530
   Exchange mixing (CP-SCF)             ...  0.530
   GGA exch. scaling(SCF)               ...  0.470
   GGA exch. scaling (CP-SCF)           ...  0.470
   GGA corr. scaling (SCF)              ...  0.730
   GGA corr. scaling (CP-SCF)           ...  0.730
The RIJCOSX approximation is active
Variables per vector in CP-SCF ... 9798
Number of vectors sought       ... 1
Calculating the xc-kernel      ... done

Solving the CP-SCF equations by a DIIS algorithm

-----------------
CP-SCF ITERATIONS
-----------------
  Iteration   0: MaxR=  0.081658900
  Iteration   1: MaxR=  0.035086230
  Iteration   2: MaxR=  0.010376445
  Iteration   3: MaxR=  0.004653996
  Iteration   4: MaxR=  0.003005468
  Iteration   5: MaxR=  0.001639043
  Iteration   6: MaxR=  0.000892403
  Iteration   7: MaxR=  0.000323502
  Iteration   8: MaxR=  0.000142483
  Iteration   9: MaxR=  0.000054858
  Iteration  10: MaxR=  0.000021388
  Iteration  11: MaxR=  0.000007675
  Iteration  12: MaxR=  0.000003614
  Iteration  13: MaxR=  0.000001403
  Iteration  14: MaxR=  0.000000542
  Iteration  15: MaxR=  0.000000204
  Iteration  16: MaxR=  0.000000065
  Iteration  17: MaxR=  0.000000024
  Iteration  18: MaxR=  0.000000009
                              *** THE CP-SCF HAS CONVERGED *** 
done
Finalizing the relaxed density                   ... done
Transforming P to the AO basis                   ... done
Storing the relaxed density                      ... done

------------------------------------
ENERGY WEIGHTED DENSITY FINALIZATION
------------------------------------

Gathering the parts of the W-matrix              ... done
Forming the Z-density                            ... done
Transforming Z to the AO basis                   ... done
Calculating G(Z)                                 ... done
Finalizing the W-matrix                          ... done
Transforming W to the AO basis and storing       ... done
Entering the RIJONX and RIJCOSX sections
Starting the three-index derivative integrals:
Operator 0  - Memory available             ...  1000 MB
Operator 0  - Memory needed per MO         ...   1.0 MB
Operator 0  - Number of orbitals per batch ... 46
Operator 0  - Number of batches            ... 1

OPERATOR  0   PASS   0:  MOs     0 ...   45

----------------------------------
MP2 DERIVATIVE INTEGRAL GENERATION
----------------------------------


Input Correlated Electron Density   ... PbMACl3_mp2_md_11.orca.pmp2re
Input Energy Weighted Density       ... PbMACl3_mp2_md_11.orca.wmp2.tmp
Input SCF Electron Density          ... PbMACl3_mp2_md_11.orca.scfp.tmp

One-Electron Terms    ...
  ECP gradient                                           ... One-Electron Terms done

-----------------------------------------------------------
MP2 COSX Grid Generation
-----------------------------------------------------------

General Integration Accuracy     IntAcc      ...  4.340
Radial Grid Type                 RadialGrid  ... Gauss-Chebyshev
Angular Grid (max. acc.)         AngularGrid ... Lebedev-302
Angular grid pruning method      GridPruning ... 3 (G Style)
Weight generation scheme         WeightScheme... Becke
Basis function cutoff            BFCut       ...    1.0000e-11
Integration weight cutoff        WCut        ...    1.0000e-14
Grids for H and He will be reduced by one unit

# of grid points (after initial pruning)     ...  57718 (   0.0 sec)
# of grid points (after weights+screening)   ...  54310 (   0.1 sec)
nearest neighbour list constructed           ...    0.0 sec
Grid point re-assignment to atoms done       ...    0.0 sec
Grid point division into batches done        ...    0.2 sec
Reduced shell lists constructed in    1.0 sec

Total number of grid points                  ...    54310
Total number of batches                      ...      855
Average number of points per batch           ...       63
Average number of grid points per atom       ...     4526
Average number of shells per batch           ...    55.12 (54.57%)
Average number of basis functions per batch  ...   145.20 (56.06%)
Average number of large shells per batch     ...    41.69 (75.63%)
Average number of large basis fcns per batch ...   107.83 (74.26%)
Maximum spatial batch extension              ...  47.00, 31.31, 32.85 au
Average spatial batch extension              ...   3.29,  2.90,  3.21 au

Overlap Fitting                  UseSFitting ... on
Two electron COSX terms .... 
Integration Timings:
Total Time                  =    99.1 sec
Basis fcn evaluation        =     0.3 sec
Density evaluation          =     1.0 sec
Integral evaluation         =    95.9 sec
K(P) evaluation             =     0.8 sec
                          .... COSX two electron terms done
COSX two-electron contribution to the gradient
     0:    -0.089564     0.043685     0.051077
     1:     0.034916     0.019087     0.016274
     2:    -0.062811    -0.155778     0.088370
     3:    -0.006137    -0.037768    -0.177906
     4:    -0.071360     0.207644     0.052955
     5:     0.052934    -0.133171    -0.090274
     6:     0.022936     0.002358     0.170654
     7:     0.123461     0.070220    -0.096370
     8:    -0.019414     0.024762     0.005466
     9:     0.047143    -0.060720    -0.017918
    10:     0.010194     0.027725    -0.033605
    11:    -0.042555    -0.008081     0.031397
Exchange-correlation gradient    ... done
Dispersion correction            ... 
Entering the calculation of the dispersion correction...

Checking the input atom types...

Done
done

                *********************************************
                * UNRELAXED MP2 DENSITY POPULATION ANALYSIS *
                *********************************************

------------------------------------------------------------------------------
                           ORCA POPULATION ANALYSIS
------------------------------------------------------------------------------
Input electron density              ... PbMACl3_mp2_md_11.orca.pmp2ur
BaseName (.gbw .S,...)              ... PbMACl3_mp2_md_11.orca

                    ********************************
                    * MULLIKEN POPULATION ANALYSIS *
                    ********************************

-----------------------
MULLIKEN ATOMIC CHARGES
-----------------------
   0 C :   -0.318908
   1 N :   -0.231428
   2 H :    0.298423
   3 H :    0.274501
   4 H :    0.269750
   5 H :    0.173980
   6 H :    0.166309
   7 H :    0.178231
   8 Pb:    0.816589
   9 Cl:   -0.519849
  10 Cl:   -0.546513
  11 Cl:   -0.561086
Sum of atomic charges:   -0.0000000

--------------------------------
MULLIKEN REDUCED ORBITAL CHARGES
--------------------------------
  0 C s       :     3.266851  s :     3.266851
      pz      :     1.078592  p :     2.964592
      px      :     0.747499
      py      :     1.138502
      dz2     :     0.017745  d :     0.079278
      dxz     :     0.016772
      dyz     :     0.010423
      dx2y2   :     0.014735
      dxy     :     0.019603
      f0      :     0.001765  f :     0.008187
      f+1     :     0.001331
      f-1     :     0.000328
      f+2     :     0.001135
      f-2     :     0.000586
      f+3     :     0.001402
      f-3     :     0.001640
  1 N s       :     3.404869  s :     3.404869
      pz      :     1.313577  p :     3.766094
      px      :     1.223381
      py      :     1.229136
      dz2     :     0.011069  d :     0.056716
      dxz     :     0.011556
      dyz     :     0.005475
      dx2y2   :     0.010409
      dxy     :     0.018207
      f0      :     0.000853  f :     0.003749
      f+1     :     0.000370
      f-1     :     0.000331
      f+2     :     0.000436
      f-2     :     0.000243
      f+3     :     0.000850
      f-3     :     0.000666
  2 H s       :     0.667430  s :     0.667430
      pz      :     0.008285  p :     0.034147
      px      :     0.008488
      py      :     0.017375
  3 H s       :     0.679511  s :     0.679511
      pz      :     0.029981  p :     0.045988
      px      :     0.007247
      py      :     0.008760
  4 H s       :     0.691271  s :     0.691271
      pz      :     0.008627  p :     0.038978
      px      :     0.009832
      py      :     0.020519
  5 H s       :     0.801006  s :     0.801006
      pz      :     0.007118  p :     0.025015
      px      :     0.005278
      py      :     0.012619
  6 H s       :     0.810967  s :     0.810967
      pz      :     0.014863  p :     0.022724
      px      :     0.003403
      py      :     0.004458
  7 H s       :     0.797664  s :     0.797664
      pz      :     0.006974  p :     0.024105
      px      :     0.009022
      py      :     0.008109
  8 Pbs       :     3.965103  s :     3.965103
      pz      :     2.289606  p :     6.938297
      px      :     2.319900
      py      :     2.328791
      dz2     :     2.026564  d :    10.165327
      dxz     :     2.038499
      dyz     :     2.027981
      dx2y2   :     2.034753
      dxy     :     2.037530
      f0      :     0.013441  f :     0.114683
      f+1     :     0.015555
      f-1     :     0.014009
      f+2     :     0.017339
      f-2     :     0.015941
      f+3     :     0.020641
      f-3     :     0.017757
  9 Cls       :     5.942310  s :     5.942310
      pz      :     3.870725  p :    11.512973
      px      :     3.848265
      py      :     3.793982
      dz2     :     0.010896  d :     0.060711
      dxz     :     0.009714
      dyz     :     0.010782
      dx2y2   :     0.011876
      dxy     :     0.017442
      f0      :     0.000483  f :     0.003855
      f+1     :     0.000475
      f-1     :     0.000516
      f+2     :     0.000422
      f-2     :     0.000576
      f+3     :     0.000720
      f-3     :     0.000661
 10 Cls       :     5.946166  s :     5.946166
      pz      :     3.842636  p :    11.532726
      px      :     3.904115
      py      :     3.785975
      dz2     :     0.012844  d :     0.063852
      dxz     :     0.010739
      dyz     :     0.015269
      dx2y2   :     0.013439
      dxy     :     0.011560
      f0      :     0.000513  f :     0.003769
      f+1     :     0.000449
      f-1     :     0.000543
      f+2     :     0.000616
      f-2     :     0.000518
      f+3     :     0.000570
      f-3     :     0.000560
 11 Cls       :     5.946046  s :     5.946046
      pz      :     3.861116  p :    11.552153
      px      :     3.814073
      py      :     3.876964
      dz2     :     0.012259  d :     0.059334
      dxz     :     0.016794
      dyz     :     0.009448
      dx2y2   :     0.010661
      dxy     :     0.010172
      f0      :     0.000481  f :     0.003553
      f+1     :     0.000709
      f-1     :     0.000421
      f+2     :     0.000604
      f-2     :     0.000500
      f+3     :     0.000426
      f-3     :     0.000412


                     *******************************
                     * LOEWDIN POPULATION ANALYSIS *
                     *******************************

----------------------
LOEWDIN ATOMIC CHARGES
----------------------
   0 C :   -0.323867
   1 N :    0.156994
   2 H :    0.218417
   3 H :    0.144862
   4 H :    0.172307
   5 H :    0.135273
   6 H :    0.127351
   7 H :    0.134432
   8 Pb:   -0.178594
   9 Cl:   -0.166500
  10 Cl:   -0.176461
  11 Cl:   -0.244214

-------------------------------
LOEWDIN REDUCED ORBITAL CHARGES
-------------------------------
  0 C s       :     2.836847  s :     2.836847
      pz      :     1.080831  p :     3.101582
      px      :     0.893405
      py      :     1.127346
      dz2     :     0.072970  d :     0.339751
      dxz     :     0.081341
      dyz     :     0.025876
      dx2y2   :     0.077194
      dxy     :     0.082370
      f0      :     0.006046  f :     0.045686
      f+1     :     0.006716
      f-1     :     0.000823
      f+2     :     0.009191
      f-2     :     0.006142
      f+3     :     0.007813
      f-3     :     0.008955
  1 N s       :     2.944664  s :     2.944664
      pz      :     1.249801  p :     3.695588
      px      :     1.256777
      py      :     1.189009
      dz2     :     0.041456  d :     0.188460
      dxz     :     0.036261
      dyz     :     0.015021
      dx2y2   :     0.035725
      dxy     :     0.059998
      f0      :     0.002112  f :     0.014294
      f+1     :     0.001654
      f-1     :     0.000939
      f+2     :     0.002440
      f-2     :     0.001850
      f+3     :     0.002349
      f-3     :     0.002950
  2 H s       :     0.679174  s :     0.679174
      pz      :     0.025713  p :     0.102409
      px      :     0.024696
      py      :     0.052000
  3 H s       :     0.710912  s :     0.710912
      pz      :     0.095091  p :     0.144225
      px      :     0.022696
      py      :     0.026438
  4 H s       :     0.708441  s :     0.708441
      pz      :     0.029245  p :     0.119252
      px      :     0.029033
      py      :     0.060974
  5 H s       :     0.797621  s :     0.797621
      pz      :     0.019849  p :     0.067106
      px      :     0.012814
      py      :     0.034443
  6 H s       :     0.808254  s :     0.808254
      pz      :     0.040582  p :     0.064394
      px      :     0.009857
      py      :     0.013955
  7 H s       :     0.799220  s :     0.799220
      pz      :     0.020186  p :     0.066348
      px      :     0.023430
      py      :     0.022732
  8 Pbs       :     3.701742  s :     3.701742
      pz      :     2.423655  p :     7.421085
      px      :     2.469800
      py      :     2.527630
      dz2     :     2.113055  d :    10.763433
      dxz     :     2.180896
      dyz     :     2.138686
      dx2y2   :     2.155819
      dxy     :     2.174977
      f0      :     0.030904  f :     0.292334
      f+1     :     0.042523
      f-1     :     0.030344
      f+2     :     0.052881
      f-2     :     0.035259
      f+3     :     0.057676
      f-3     :     0.042747
  9 Cls       :     5.717119  s :     5.717119
      pz      :     3.809387  p :    11.357065
      px      :     3.796132
      py      :     3.751546
      dz2     :     0.016734  d :     0.086442
      dxz     :     0.010330
      dyz     :     0.011247
      dx2y2   :     0.011371
      dxy     :     0.036760
      f0      :     0.000595  f :     0.005873
      f+1     :     0.000725
      f-1     :     0.000815
      f+2     :     0.000422
      f-2     :     0.000767
      f+3     :     0.001474
      f-3     :     0.001075
 10 Cls       :     5.715617  s :     5.715617
      pz      :     3.767714  p :    11.360442
      px      :     3.847432
      py      :     3.745296
      dz2     :     0.014765  d :     0.094506
      dxz     :     0.011993
      dyz     :     0.026858
      dx2y2   :     0.024162
      dxy     :     0.016726
      f0      :     0.000885  f :     0.005897
      f+1     :     0.000501
      f-1     :     0.000681
      f+2     :     0.001185
      f-2     :     0.000820
      f+3     :     0.000956
      f-3     :     0.000868
 11 Cls       :     5.742136  s :     5.742136
      pz      :     3.816578  p :    11.411105
      px      :     3.769281
      py      :     3.825245
      dz2     :     0.016159  d :     0.085646
      dxz     :     0.035613
      dyz     :     0.009959
      dx2y2   :     0.013681
      dxy     :     0.010235
      f0      :     0.000489  f :     0.005327
      f+1     :     0.001655
      f-1     :     0.000459
      f+2     :     0.001205
      f-2     :     0.000576
      f+3     :     0.000508
      f-3     :     0.000434


                      *****************************
                      * MAYER POPULATION ANALYSIS *
                      *****************************

  NA   - Mulliken gross atomic population
  ZA   - Total nuclear charge
  QA   - Mulliken gross atomic charge
  VA   - Mayer's total valence
  BVA  - Mayer's bonded valence
  FA   - Mayer's free valence

  ATOM       NA         ZA         QA         VA         BVA        FA
  0 C      6.3189     6.0000    -0.3189     3.8845     3.7671     0.1174
  1 N      7.2314     7.0000    -0.2314     3.4614     3.3319     0.1295
  2 H      0.7016     1.0000     0.2984     0.9766     0.9555     0.0212
  3 H      0.7255     1.0000     0.2745     1.0151     0.9955     0.0196
  4 H      0.7302     1.0000     0.2698     0.9284     0.9127     0.0157
  5 H      0.8260     1.0000     0.1740     0.9646     0.9452     0.0195
  6 H      0.8337     1.0000     0.1663     0.9645     0.9465     0.0180
  7 H      0.8218     1.0000     0.1782     0.9675     0.9493     0.0182
  8 Pb    21.1834    22.0000     0.8166     2.2327     1.8485     0.3842
  9 Cl    17.5198    17.0000    -0.5198     1.0564     0.7926     0.2639
 10 Cl    17.5465    17.0000    -0.5465     0.9908     0.7282     0.2627
 11 Cl    17.5611    17.0000    -0.5611     0.9744     0.7099     0.2645

  Mayer bond orders larger than 0.1
B(  0-C ,  1-N ) :   0.8885 B(  0-C ,  5-H ) :   0.9469 B(  0-C ,  6-H ) :   0.9416 
B(  0-C ,  7-H ) :   0.9561 B(  1-N ,  2-H ) :   0.8112 B(  1-N ,  3-H ) :   0.7983 
B(  1-N ,  4-H ) :   0.8923 B(  2-H , 11-Cl) :   0.1414 B(  3-H , 10-Cl) :   0.1983 
B(  8-Pb,  9-Cl) :   0.7682 B(  8-Pb, 10-Cl) :   0.4934 B(  8-Pb, 11-Cl) :   0.5665 



                *******************************************
                * RELAXED MP2 DENSITY POPULATION ANALYSIS *
                *******************************************

------------------------------------------------------------------------------
                           ORCA POPULATION ANALYSIS
------------------------------------------------------------------------------
Input electron density              ... PbMACl3_mp2_md_11.orca.pmp2re
BaseName (.gbw .S,...)              ... PbMACl3_mp2_md_11.orca

                    ********************************
                    * MULLIKEN POPULATION ANALYSIS *
                    ********************************

-----------------------
MULLIKEN ATOMIC CHARGES
-----------------------
   0 C :   -0.338384
   1 N :   -0.228046
   2 H :    0.292429
   3 H :    0.267538
   4 H :    0.269766
   5 H :    0.179990
   6 H :    0.168813
   7 H :    0.181699
   8 Pb:    0.754570
   9 Cl:   -0.492805
  10 Cl:   -0.520785
  11 Cl:   -0.534785
Sum of atomic charges:   -0.0000000

--------------------------------
MULLIKEN REDUCED ORBITAL CHARGES
--------------------------------
  0 C s       :     3.269806  s :     3.269806
      pz      :     1.086208  p :     2.985449
      px      :     0.754080
      py      :     1.145161
      dz2     :     0.016273  d :     0.075108
      dxz     :     0.016487
      dyz     :     0.009743
      dx2y2   :     0.013786
      dxy     :     0.018818
      f0      :     0.001717  f :     0.008022
      f+1     :     0.001312
      f-1     :     0.000326
      f+2     :     0.001112
      f-2     :     0.000564
      f+3     :     0.001379
      f-3     :     0.001611
  1 N s       :     3.405490  s :     3.405490
      pz      :     1.313106  p :     3.763769
      px      :     1.220012
      py      :     1.230651
      dz2     :     0.010602  d :     0.055106
      dxz     :     0.011501
      dyz     :     0.005162
      dx2y2   :     0.009710
      dxy     :     0.018131
      f0      :     0.000830  f :     0.003681
      f+1     :     0.000367
      f-1     :     0.000326
      f+2     :     0.000429
      f-2     :     0.000242
      f+3     :     0.000823
      f-3     :     0.000664
  2 H s       :     0.673764  s :     0.673764
      pz      :     0.008267  p :     0.033808
      px      :     0.008490
      py      :     0.017051
  3 H s       :     0.686882  s :     0.686882
      pz      :     0.029425  p :     0.045580
      px      :     0.007346
      py      :     0.008809
  4 H s       :     0.691693  s :     0.691693
      pz      :     0.008718  p :     0.038541
      px      :     0.009815
      py      :     0.020008
  5 H s       :     0.795361  s :     0.795361
      pz      :     0.007045  p :     0.024649
      px      :     0.005260
      py      :     0.012344
  6 H s       :     0.808825  s :     0.808825
      pz      :     0.014334  p :     0.022362
      px      :     0.003471
      py      :     0.004558
  7 H s       :     0.794606  s :     0.794606
      pz      :     0.006863  p :     0.023695
      px      :     0.008770
      py      :     0.008062
  8 Pbs       :     3.966353  s :     3.966353
      pz      :     2.312720  p :     7.003625
      px      :     2.338801
      py      :     2.352104
      dz2     :     2.026248  d :    10.163300
      dxz     :     2.036775
      dyz     :     2.028539
      dx2y2   :     2.035066
      dxy     :     2.036671
      f0      :     0.013216  f :     0.112152
      f+1     :     0.015050
      f-1     :     0.013793
      f+2     :     0.016888
      f-2     :     0.015696
      f+3     :     0.020108
      f-3     :     0.017401
  9 Cls       :     5.943198  s :     5.943198
      pz      :     3.861065  p :    11.484971
      px      :     3.837562
      py      :     3.786344
      dz2     :     0.010945  d :     0.060771
      dxz     :     0.009713
      dyz     :     0.010703
      dx2y2   :     0.011841
      dxy     :     0.017569
      f0      :     0.000484  f :     0.003864
      f+1     :     0.000476
      f-1     :     0.000517
      f+2     :     0.000423
      f-2     :     0.000579
      f+3     :     0.000720
      f-3     :     0.000665
 10 Cls       :     5.946643  s :     5.946643
      pz      :     3.832606  p :    11.506104
      px      :     3.896952
      py      :     3.776546
      dz2     :     0.012886  d :     0.064252
      dxz     :     0.010770
      dyz     :     0.015342
      dx2y2   :     0.013566
      dxy     :     0.011688
      f0      :     0.000513  f :     0.003786
      f+1     :     0.000451
      f-1     :     0.000550
      f+2     :     0.000616
      f-2     :     0.000520
      f+3     :     0.000572
      f-3     :     0.000563
 11 Cls       :     5.946898  s :     5.946898
      pz      :     3.851722  p :    11.524863
      px      :     3.805406
      py      :     3.867734
      dz2     :     0.012310  d :     0.059461
      dxz     :     0.016903
      dyz     :     0.009488
      dx2y2   :     0.010615
      dxy     :     0.010146
      f0      :     0.000484  f :     0.003563
      f+1     :     0.000708
      f-1     :     0.000424
      f+2     :     0.000603
      f-2     :     0.000505
      f+3     :     0.000427
      f-3     :     0.000413


                     *******************************
                     * LOEWDIN POPULATION ANALYSIS *
                     *******************************

----------------------
LOEWDIN ATOMIC CHARGES
----------------------
   0 C :   -0.333391
   1 N :    0.152795
   2 H :    0.216978
   3 H :    0.143076
   4 H :    0.172772
   5 H :    0.137793
   6 H :    0.129135
   7 H :    0.136113
   8 Pb:   -0.215418
   9 Cl:   -0.149259
  10 Cl:   -0.162849
  11 Cl:   -0.227745

-------------------------------
LOEWDIN REDUCED ORBITAL CHARGES
-------------------------------
  0 C s       :     2.838336  s :     2.838336
      pz      :     1.084526  p :     3.114350
      px      :     0.897085
      py      :     1.132739
      dz2     :     0.071531  d :     0.335282
      dxz     :     0.081072
      dyz     :     0.025247
      dx2y2   :     0.075854
      dxy     :     0.081578
      f0      :     0.006001  f :     0.045423
      f+1     :     0.006650
      f-1     :     0.000819
      f+2     :     0.009149
      f-2     :     0.006144
      f+3     :     0.007772
      f-3     :     0.008887
  1 N s       :     2.946022  s :     2.946022
      pz      :     1.251391  p :     3.698736
      px      :     1.256320
      py      :     1.191025
      dz2     :     0.041313  d :     0.188088
      dxz     :     0.036376
      dyz     :     0.014887
      dx2y2   :     0.035380
      dxy     :     0.060132
      f0      :     0.002123  f :     0.014359
      f+1     :     0.001657
      f-1     :     0.000942
      f+2     :     0.002455
      f-2     :     0.001866
      f+3     :     0.002352
      f-3     :     0.002963
  2 H s       :     0.680627  s :     0.680627
      pz      :     0.025751  p :     0.102394
      px      :     0.024778
      py      :     0.051865
  3 H s       :     0.712661  s :     0.712661
      pz      :     0.094960  p :     0.144263
      px      :     0.022775
      py      :     0.026528
  4 H s       :     0.708171  s :     0.708171
      pz      :     0.029430  p :     0.119057
      px      :     0.029062
      py      :     0.060564
  5 H s       :     0.794782  s :     0.794782
      pz      :     0.019963  p :     0.067426
      px      :     0.012909
      py      :     0.034554
  6 H s       :     0.806390  s :     0.806390
      pz      :     0.040264  p :     0.064475
      px      :     0.010038
      py      :     0.014173
  7 H s       :     0.797475  s :     0.797475
      pz      :     0.020201  p :     0.066411
      px      :     0.023351
      py      :     0.022859
  8 Pbs       :     3.706013  s :     3.706013
      pz      :     2.440933  p :     7.466621
      px      :     2.482733
      py      :     2.542956
      dz2     :     2.111873  d :    10.754794
      dxz     :     2.177180
      dyz     :     2.138065
      dx2y2   :     2.154918
      dxy     :     2.172758
      f0      :     0.030468  f :     0.287989
      f+1     :     0.041770
      f-1     :     0.029949
      f+2     :     0.052022
      f-2     :     0.034634
      f+3     :     0.057001
      f-3     :     0.042146
  9 Cls       :     5.720223  s :     5.720223
      pz      :     3.801450  p :    11.335500
      px      :     3.787628
      py      :     3.746422
      dz2     :     0.016932  d :     0.087572
      dxz     :     0.010440
      dyz     :     0.011324
      dx2y2   :     0.011515
      dxy     :     0.037360
      f0      :     0.000605  f :     0.005964
      f+1     :     0.000730
      f-1     :     0.000826
      f+2     :     0.000424
      f-2     :     0.000785
      f+3     :     0.001506
      f-3     :     0.001088
 10 Cls       :     5.718690  s :     5.718690
      pz      :     3.760686  p :    11.342421
      px      :     3.842203
      py      :     3.739532
      dz2     :     0.014873  d :     0.095755
      dxz     :     0.012111
      dyz     :     0.027324
      dx2y2   :     0.024572
      dxy     :     0.016875
      f0      :     0.000896  f :     0.005983
      f+1     :     0.000505
      f-1     :     0.000695
      f+2     :     0.001208
      f-2     :     0.000831
      f+3     :     0.000962
      f-3     :     0.000886
 11 Cls       :     5.744970  s :     5.744970
      pz      :     3.809505  p :    11.391004
      px      :     3.762886
      py      :     3.818613
      dz2     :     0.016213  d :     0.086388
      dxz     :     0.036053
      dyz     :     0.010061
      dx2y2   :     0.013769
      dxy     :     0.010291
      f0      :     0.000496  f :     0.005384
      f+1     :     0.001666
      f-1     :     0.000462
      f+2     :     0.001224
      f-2     :     0.000586
      f+3     :     0.000512
      f-3     :     0.000438


                      *****************************
                      * MAYER POPULATION ANALYSIS *
                      *****************************

  NA   - Mulliken gross atomic population
  ZA   - Total nuclear charge
  QA   - Mulliken gross atomic charge
  VA   - Mayer's total valence
  BVA  - Mayer's bonded valence
  FA   - Mayer's free valence

  ATOM       NA         ZA         QA         VA         BVA        FA
  0 C      6.3384     6.0000    -0.3384     3.8824     3.7652     0.1172
  1 N      7.2280     7.0000    -0.2280     3.4619     3.3327     0.1292
  2 H      0.7076     1.0000     0.2924     0.9840     0.9630     0.0210
  3 H      0.7325     1.0000     0.2675     1.0237     1.0042     0.0195
  4 H      0.7302     1.0000     0.2698     0.9284     0.9128     0.0156
  5 H      0.8200     1.0000     0.1800     0.9661     0.9468     0.0193
  6 H      0.8312     1.0000     0.1688     0.9647     0.9467     0.0180
  7 H      0.8183     1.0000     0.1817     0.9663     0.9481     0.0182
  8 Pb    21.2454    22.0000     0.7546     2.3335     1.9542     0.3793
  9 Cl    17.4928    17.0000    -0.4928     1.1054     0.8434     0.2620
 10 Cl    17.5208    17.0000    -0.5208     1.0402     0.7789     0.2613
 11 Cl    17.5348    17.0000    -0.5348     1.0238     0.7609     0.2629

  Mayer bond orders larger than 0.1
B(  0-C ,  1-N ) :   0.8962 B(  0-C ,  5-H ) :   0.9423 B(  0-C ,  6-H ) :   0.9392 
B(  0-C ,  7-H ) :   0.9526 B(  1-N ,  2-H ) :   0.8078 B(  1-N ,  3-H ) :   0.7933 
B(  1-N ,  4-H ) :   0.8907 B(  2-H , 11-Cl) :   0.1511 B(  3-H , 10-Cl) :   0.2110 
B(  8-Pb,  9-Cl) :   0.8113 B(  8-Pb, 10-Cl) :   0.5188 B(  8-Pb, 11-Cl) :   0.6000 



-------
TIMINGS
-------

Total time                :  525.355 sec
Integral trafo            :    2.665 sec (  0.5%)
I/O of integrals          :    0.105 sec (  0.0%)
K(i,j) Operators          :    8.346 sec (  1.6%)
T(i,j) pair energies      :    1.117 sec (  0.2%)
V-calculation             :    0.019 sec (  0.0%)
V**(-1/2)                 :    0.044 sec (  0.0%)
Gamma(ia|P)               :    8.124 sec (  1.5%)
Gamma-Trafo               :    1.094 sec (  0.2%)
D(virtual)                :    3.652 sec (  0.7%)
D(internal)               :    3.466 sec (  0.7%)
W(virtual)                :    7.297 sec (  1.4%)
W(internal)               :   12.238 sec (  2.3%)
L(virtual)                :    4.918 sec (  0.9%)
L(internal)               :    0.168 sec (  0.0%)
G(D)                      :   14.543 sec (  2.8%)
G(Z)                      :   14.727 sec (  2.8%)
Z-Vector Solution         :  324.048 sec ( 61.7%)
Z-Vector Solution         :  324.048 sec ( 61.7%)
3-Index Derivative 
+ Separable RIJ part      :    4.355 sec (  0.8%)
2-Index Derivative 
+ Separable RIJ part      :    0.035 sec (  0.0%)
Separable Gradient (COSX) :  111.852 sec ( 21.3%)


---------------------------------------
MP2 TOTAL ENERGY:    -1669.533216859 Eh
---------------------------------------

The final MP2 gradient
  0:  -0.06067369   0.01450529   0.00977421
  1:  -0.00254657   0.07026826  -0.02411741
  2:   0.01814924  -0.02226770   0.00905196
  3:   0.00880766   0.00187337   0.04239595
  4:   0.02819604  -0.04789830  -0.01618577
  5:   0.00622388   0.00608204  -0.02027834
  6:  -0.00347129   0.00161586   0.00817499
  7:   0.00929770  -0.01923072  -0.01076663
  8:   0.02344412   0.02980530   0.02209340
  9:  -0.03265235   0.03033680   0.00240592
 10:  -0.01538513  -0.05015301   0.01881345
 11:   0.02041600  -0.01488909  -0.04124469

-----------------------------------
NORM OF THE MP2 GRADIENT:  0.161724
-----------------------------------

Entering the calculation of the dispersion correction...

Checking the input atom types...

Done


-------------------------------------------------------------------------------
                          DFT DISPERSION CORRECTION                            
                                                                               
                                DFTD3 V2.1  Rev 6                               
                          USING Becke-Johnson damping                          
-------------------------------------------------------------------------------
The B2PLYP functional is recognized
Active option DFTDOPT                   ...         4   

molecular C6(AA) [au] = 4868.392762 


            DFT-D V3
 parameters
 s6 scaling factor         :     0.6400 
 a1 scaling factor         :     0.3065 
 s8 scaling factor         :     0.9147 
 a2 scaling factor         :     5.0570 
 ad hoc parameters k1-k3   :    16.0000     1.3333    -4.0000 

 Edisp/kcal,au: -8.200410441801  -0.013068184475 
 E6   /kcal   :  -3.733545172 
 E8   /kcal   :  -4.466865269 
 % E8         :  54.471240204 

-------------------------   ----------------
Dispersion correction           -0.013068184
-------------------------   ----------------


-------------------------   --------------------
FINAL SINGLE POINT ENERGY     -1669.546285043741
-------------------------   --------------------


                            ***************************************
                            *     ORCA property calculations      *
                            ***************************************


  WARNING: The energy has been calculated at the MP2 level but the densities
           used in the property calculations are still SCF densities
           MP2 response densities have not been calculated 
           use %mp2 Density relaxed end
           or  %mp2 Density unrelaxed end

                                    ---------------------
                                    Active property flags
                                    ---------------------
   (+) Dipole Moment


------------------------------------------------------------------------------
                       ORCA ELECTRIC PROPERTIES CALCULATION
------------------------------------------------------------------------------

Dipole Moment Calculation                       ... on
Quadrupole Moment Calculation                   ... off
Polarizability Calculation                      ... off
GBWName                                         ... PbMACl3_mp2_md_11.orca.gbw
Electron density file                           ... PbMACl3_mp2_md_11.orca.scfp.tmp

-------------
DIPOLE MOMENT
-------------
                                X             Y             Z
Electronic contribution:    -19.69020     -68.02544     -39.80640
Nuclear contribution   :     19.77789      72.15573      41.71190
                        -----------------------------------------
Total Dipole Moment    :      0.08770       4.13030       1.90551
                        -----------------------------------------
Magnitude (a.u.)       :      4.54950
Magnitude (Debye)      :     11.56392


                         *** MP2 UNRELAXED DENSITY ***

------------------------------------------------------------------------------
                       ORCA ELECTRIC PROPERTIES CALCULATION
------------------------------------------------------------------------------

Dipole Moment Calculation                       ... on
Quadrupole Moment Calculation                   ... off
Polarizability Calculation                      ... off
GBWName                                         ... PbMACl3_mp2_md_11.orca.gbw
Electron density file                           ... PbMACl3_mp2_md_11.orca.pmp2ur

-------------
DIPOLE MOMENT
-------------
                                X             Y             Z
Electronic contribution:    -19.68984     -68.03842     -39.81231
Nuclear contribution   :     19.77789      72.15573      41.71190
                        -----------------------------------------
Total Dipole Moment    :      0.08806       4.11731       1.89960
                        -----------------------------------------
Magnitude (a.u.)       :      4.53525
Magnitude (Debye)      :     11.52768


                           *** MP2 RELAXED DENSITY ***

------------------------------------------------------------------------------
                       ORCA ELECTRIC PROPERTIES CALCULATION
------------------------------------------------------------------------------

Dipole Moment Calculation                       ... on
Quadrupole Moment Calculation                   ... off
Polarizability Calculation                      ... off
GBWName                                         ... PbMACl3_mp2_md_11.orca.gbw
Electron density file                           ... PbMACl3_mp2_md_11.orca.pmp2re

-------------
DIPOLE MOMENT
-------------
                                X             Y             Z
Electronic contribution:    -19.70369     -68.11200     -39.84953
Nuclear contribution   :     19.77789      72.15573      41.71190
                        -----------------------------------------
Total Dipole Moment    :      0.07420       4.04373       1.86237
                        -----------------------------------------
Magnitude (a.u.)       :      4.45260
Magnitude (Debye)      :     11.31762


Timings for individual modules:

Sum of individual times         ...      969.288 sec (=  16.155 min)
GTO integral calculation        ...        3.123 sec (=   0.052 min)   0.3 %
SCF iterations                  ...      439.465 sec (=   7.324 min)  45.3 %
MP2 module                      ...      526.700 sec (=   8.778 min)  54.3 %
                             ****ORCA TERMINATED NORMALLY****
TOTAL RUN TIME: 0 days 0 hours 16 minutes 10 seconds 982 msec
