
                                 *****************
                                 * O   R   C   A *
                                 *****************

           --- An Ab Initio, DFT and Semiempirical electronic structure package ---

                  #######################################################
                  #                        -***-                        #
                  #  Department of molecular theory and spectroscopy    #
                  #              Directorship: Frank Neese              #
                  # Max Planck Institute for Chemical Energy Conversion #
                  #                  D-45470 Muelheim/Ruhr              #
                  #                       Germany                       #
                  #                                                     #
                  #                  All rights reserved                #
                  #                        -***-                        #
                  #######################################################


                         Program Version 3.0.3 - RELEASE   -


 With contributions from (in alphabetic order):
   Ute Becker             : Parallelization
   Dmytro Bykov           : SCF Hessian
   Dmitry Ganyushin       : Spin-Orbit,Spin-Spin,Magnetic field MRCI
   Andreas Hansen         : Spin unrestricted coupled pair/coupled cluster methods
   Dimitrios Liakos       : Extrapolation schemes; parallel MDCI
   Robert Izsak           : Overlap fitted RIJCOSX, COSX-SCS-MP3
   Christian Kollmar      : KDIIS, OOCD, Brueckner-CCSD(T), CCSD density
   Simone Kossmann        : Meta GGA functionals, TD-DFT gradient, OOMP2, MP2 Hessian
   Taras Petrenko         : DFT Hessian,TD-DFT gradient, ASA and ECA modules, normal mode analysis, Resonance Raman, ABS, FL, XAS/XES, NRVS
   Christoph Reimann      : Effective Core Potentials
   Michael Roemelt        : Restricted open shell CIS
   Christoph Riplinger    : Improved optimizer, TS searches, QM/MM, DLPNO-CCSD
   Barbara Sandhoefer     : DKH picture change effects
   Igor Schapiro          : Molecular dynamics
   Kantharuban Sivalingam : CASSCF convergence, NEVPT2
   Boris Wezisla          : Elementary symmetry handling
   Frank Wennmohs         : Technical directorship


 We gratefully acknowledge several colleagues who have allowed us to
 interface, adapt or use parts of their codes:
   Stefan Grimme, W. Hujo, H. Kruse, T. Risthaus : VdW corrections, initial TS optimization,
                                                   DFT functionals, gCP
   Ed Valeev                                     : LibInt (2-el integral package), F12 methods
   Garnet Chan, S. Sharma, R. Olivares           : DMRG
   Ulf Ekstrom                                   : XCFun DFT Library
   Mihaly Kallay                                 : mrcc  (arbitrary order and MRCC methods)
   Andreas Klamt, Michael Diedenhofen            : otool_cosmo (COSMO solvation model)
   Frank Weinhold                                : gennbo (NPA and NBO analysis)
   Christopher J. Cramer and Donald G. Truhlar   : smd solvation model


 Your calculation uses the libint2 library for the computation of 2-el integrals
 For citations please refer to: http://libint.valeyev.net

 This ORCA versions uses:
   CBLAS   interface :  Fast vector & matrix operations
   LAPACKE interface :  Fast linear algebra routines
   SCALAPACK package :  Parallel linear algebra routines


Your calculation utilizes the basis: Ahlrichs-TZV
Cite in your paper:
H - Kr: A. Schaefer, H. Horn and R. Ahlrichs, J. Chem. Phys. 97, 2571 (1992).

The def2-TZV basis will be loaded
Cite in your paper:
 	F. Weigend, R. Ahlrichs, Phys. Chem. Chem. Phys. 2005, 7, 3297.

Your calculation utilizes the atom-pairwise dispersion correction
with the Becke-Johnson damping scheme (D3BJ)
Cite in your paper:
S.Grimme, S.Ehrlich, L.Goerigk, J Comput Chem, (2011), 32, 1456–1465 
S.Grimme, J.Antony, S.Ehrlich and H.Krieg, J.Chem.Phys., 132, (2010), 154104 
   

================================================================================
                                        WARNINGS
                       Please study these warnings very carefully!
================================================================================

WARNING: The RI method has been chosen with no auxiliary basis (AUX or GTOAUX in BASIS block)
        Standard TZV/J expansion basis used (GTOAUX=TZV_J)

Now building the actual basis set
cite the ECPs for Pb [SD(60,MDF)] as follows:
  B. Metz, H. Stoll, M. Dolg, J. Chem. Phys. 113, 2563 (2000).

ECP parameters for Pb [SD(60,MDF)] have been obtained from:
  pseudopotential library of the Stuttgart/Cologne group
  http://www.theochem.uni-stuttgart.de/pseudopotentials/

cite the ECP basis sets for Pb [DEF2-TZVP] as follows:
  F. Weigend, R. Ahlrichs; Phys. Chem. Chem. Phys. 7, 3297(2005).

ECP basis sets for Pb [DEF2-TZVP] have been obtained from:
  Turbomole basis set library
  ftp://ftp.chemie.uni-karlsruhe.de/pub/basen/



INFO   : the flag for use of LIBINT has been found!

================================================================================
                                       INPUT FILE
================================================================================
NAME = Pb2Cl11_6NH3CH3_-1_mp2_sp2_0.orca
|  1> ! RIJCOSX RI-B2PLYP D3BJ def2-TZVP ECP{def2-TZVP} TIGHTSCF Grid5 FinalGrid6 MORead
|  2> %maxcore 4000
|  3> %moinp "previous.gbw"
|  4> *xyz -1 1
|  5> C 3.321334 3.304660 2.430157 
|  6> N 2.356571 2.328752 1.891132 
|  7> H 3.929482 2.825089 3.202898 
|  8> H 2.779051 4.148026 2.867131 
|  9> H 3.970752 3.667461 1.628343 
| 10> H 1.712427 1.919960 2.626954 
| 11> H 2.798301 1.476145 1.466883 
| 12> H 1.726191 2.717573 1.143366 
| 13> Pb 0.007453 -0.193078 0.717151 
| 14> Cl 2.761571 -0.540516 0.818873 
| 15> Cl 0.249956 2.913658 -0.283651 
| 16> Cl 0.356063 0.651087 3.491133 
| 17> Cl -3.321404 -0.293700 -0.024976 
| 18> Cl 0.026529 -1.161053 -2.196866 
| 19> Cl -0.571076 -2.753744 1.834521 
| 20> N -2.185808 -3.054212 -0.959335 
| 21> C -3.018599 -3.892984 -1.852407 
| 22> H -2.697680 -2.199715 -0.614166 
| 23> H -1.345672 -2.675212 -1.453465 
| 24> H -3.863008 -4.284793 -1.282203 
| 25> H -2.403708 -4.719219 -2.215644 
| 26> H -3.366846 -3.277457 -2.686457 
| 27> H -1.855008 -3.591944 -0.148281 
| 28> Cl 3.311814 -4.829725 1.507621 
| 29> Cl 1.009982 -5.235898 4.871371 
| 30> Pb 0.322287 -5.480586 1.497383 
| 31> N 2.161285 -2.658962 3.515767 
| 32> C 3.006676 -1.740565 4.311813 
| 33> H 2.698023 -3.156655 2.770259 
| 34> H 1.390718 -2.163400 3.045648 
| 35> H 3.799912 -2.319606 4.793333 
| 36> H 2.384520 -1.246095 5.060700 
| 37> H 3.427402 -0.991699 3.638613 
| 38> H 1.731703 -3.427574 4.095222 
| 39> Cl 0.341688 -5.426955 -1.288305 
| 40> H -2.444419 -8.567556 -2.232135 
| 41> H -0.598109 -7.323819 -1.165277 
| 42> H -1.004862 -9.612620 -2.073837 
| 43> C -1.775778 -9.065444 -1.523604 
| 44> N -1.147567 -8.055720 -0.651573 
| 45> Cl -2.541954 -5.971637 1.080241 
| 46> H -1.842497 -7.478800 -0.094428 
| 47> H -0.483324 -8.457680 0.056334 
| 48> H -2.352281 -9.766255 -0.913124 
| 49> Cl 0.883396 -8.618335 1.604477 
| 50> H -3.020852 1.137851 -3.759427 
| 51> H -2.443836 0.935457 -1.388789 
| 52> C -2.421148 1.915242 -3.276964 
| 53> H -3.072919 2.741318 -2.978333 
| 54> N -1.760461 1.345922 -2.088558 
| 55> H -1.130632 0.530708 -2.323343 
| 56> H -1.666594 2.281032 -3.979276 
| 57> H -1.165922 2.035435 -1.571092 
| 58> H 3.622704 -8.508951 4.939340 
| 59> H 2.344608 -7.817453 2.937850 
| 60> C 4.032137 -7.791101 4.222778 
| 61> H 4.696529 -8.309487 3.525223 
| 62> N 2.932785 -7.146076 3.481813 
| 63> H 2.277052 -6.592786 4.110347 
| 64> H 4.597499 -7.025510 4.762093 
| 65> H 3.269849 -6.425562 2.787786 
| 66> *
| 67> 
| 68>                          ****END OF INPUT****
================================================================================

                       ****************************
                       * Single Point Calculation *
                       ****************************

---------------------------------
CARTESIAN COORDINATES (ANGSTROEM)
---------------------------------
  C      3.321334    3.304660    2.430157
  N      2.356571    2.328752    1.891132
  H      3.929482    2.825089    3.202898
  H      2.779051    4.148026    2.867131
  H      3.970752    3.667461    1.628343
  H      1.712427    1.919960    2.626954
  H      2.798301    1.476145    1.466883
  H      1.726191    2.717573    1.143366
  Pb     0.007453   -0.193078    0.717151
  Cl     2.761571   -0.540516    0.818873
  Cl     0.249956    2.913658   -0.283651
  Cl     0.356063    0.651087    3.491133
  Cl    -3.321404   -0.293700   -0.024976
  Cl     0.026529   -1.161053   -2.196866
  Cl    -0.571076   -2.753744    1.834521
  N     -2.185808   -3.054212   -0.959335
  C     -3.018599   -3.892984   -1.852407
  H     -2.697680   -2.199715   -0.614166
  H     -1.345672   -2.675212   -1.453465
  H     -3.863008   -4.284793   -1.282203
  H     -2.403708   -4.719219   -2.215644
  H     -3.366846   -3.277457   -2.686457
  H     -1.855008   -3.591944   -0.148281
  Cl     3.311814   -4.829725    1.507621
  Cl     1.009982   -5.235898    4.871371
  Pb     0.322287   -5.480586    1.497383
  N      2.161285   -2.658962    3.515767
  C      3.006676   -1.740565    4.311813
  H      2.698023   -3.156655    2.770259
  H      1.390718   -2.163400    3.045648
  H      3.799912   -2.319606    4.793333
  H      2.384520   -1.246095    5.060700
  H      3.427402   -0.991699    3.638613
  H      1.731703   -3.427574    4.095222
  Cl     0.341688   -5.426955   -1.288305
  H     -2.444419   -8.567556   -2.232135
  H     -0.598109   -7.323819   -1.165277
  H     -1.004862   -9.612620   -2.073837
  C     -1.775778   -9.065444   -1.523604
  N     -1.147567   -8.055720   -0.651573
  Cl    -2.541954   -5.971637    1.080241
  H     -1.842497   -7.478800   -0.094428
  H     -0.483324   -8.457680    0.056334
  H     -2.352281   -9.766255   -0.913124
  Cl     0.883396   -8.618335    1.604477
  H     -3.020852    1.137851   -3.759427
  H     -2.443836    0.935457   -1.388789
  C     -2.421148    1.915242   -3.276964
  H     -3.072919    2.741318   -2.978333
  N     -1.760461    1.345922   -2.088558
  H     -1.130632    0.530708   -2.323343
  H     -1.666594    2.281032   -3.979276
  H     -1.165922    2.035435   -1.571092
  H      3.622704   -8.508951    4.939340
  H      2.344608   -7.817453    2.937850
  C      4.032137   -7.791101    4.222778
  H      4.696529   -8.309487    3.525223
  N      2.932785   -7.146076    3.481813
  H      2.277052   -6.592786    4.110347
  H      4.597499   -7.025510    4.762093
  H      3.269849   -6.425562    2.787786

----------------------------
CARTESIAN COORDINATES (A.U.)
----------------------------
  NO LB      ZA    FRAG    MASS        X           Y           Z
   0 C     6.0000    0    12.011          6.276411659281206          6.244902365724204          4.592331192431667
   1 N     7.0000    0    14.007          4.453273805140938          4.400703513821383          3.573721563094765
   2 H     1.0000    0     1.008          7.425644828173148          5.338644513953455          6.052600054884109
   3 H     1.0000    0     1.008          5.251645302199988          7.838633136384834          5.418092380075772
   4 H     1.0000    0     1.008          7.503633825720078          6.930496896836967          3.077122322087733
   5 H     1.0000    0     1.008          3.236018054332367          3.628198588083447          4.964223626408968
   6 H     1.0000    0     1.008          5.288022530277972          2.789509783957186          2.772007140504807
   7 H     1.0000    0     1.008          3.262028244839660          5.135468718938777          2.160648610837006
   8 Pb   22.0000*   0   207.200  0.014084128876115  -0.364864542485247  1.355218986667760
   9 Cl   17.0000    0    35.453          5.218612889379044         -1.021427211002579          1.547445708462497
  10 Cl   17.0000    0    35.453          0.472348385530420          5.506015667908726         -0.536022707612897
  11 Cl   17.0000    0    35.453          0.672861556422403          1.230376119356386          6.597285267094901
  12 Cl   17.0000    0    35.453         -6.276543940110581         -0.555012565532672         -0.047197799920817
  13 Cl   17.0000    0    35.453          0.050132544606797         -2.194072196967671         -4.151475092923045
  14 Cl   17.0000    0    35.453         -1.079177241655213         -5.203822002928844          3.466742276927349
  15 N     7.0000    0    14.007         -4.130578501334144         -5.771624234935894         -1.812880420685344
  16 C     6.0000    0    12.011         -5.704325418128557         -7.356673603737290         -3.500541918558664
  17 H     1.0000    0     1.008         -5.097876396956682         -4.156858922678586         -1.160605540765880
  18 H     1.0000    0     1.008         -2.542951546086079         -5.055418030179740         -2.746650795239852
  19 H     1.0000    0     1.008         -7.300027173146867         -8.097085310542841         -2.423012518092230
  20 H     1.0000    0     1.008         -4.542349825915584         -8.918031475997715         -4.186960370265818
  21 H     1.0000    0     1.008         -6.362416875088230         -6.193496145703143         -5.076668000555684
  22 H     1.0000    0     1.008         -3.505457096232993         -6.787790448381636         -0.280210480863977
  23 Cl   17.0000    0    35.453          6.258421466486277         -9.126857552152817          2.848990803748491
  24 Cl   17.0000    0    35.453          1.908589380190054         -9.894413285146014          9.205557086726101
  25 Pb   22.0000*   0   207.200  0.609034166523078  -10.356806593402936  2.829643787589406
  26 N     7.0000    0    14.007          4.084236747351992         -5.024709980503519          6.643836780677917
  27 C     6.0000    0    12.011          5.681794213433814         -3.289191168288643          8.148145710681394
  28 H     1.0000    0     1.008          5.098524573020617         -5.965213449273189          5.235030830030552
  29 H     1.0000    0     1.008          2.628076149514695         -4.088233518125236          5.755440620324992
  30 H     1.0000    0     1.008          7.180793013000971         -4.383420078600539          9.058086638687154
  31 H     1.0000    0     1.008          4.506089760857903         -2.354778286848602          9.563337045935278
  32 H     1.0000    0     1.008          6.476851130853966         -1.874039517283571          6.875982077325607
  33 H     1.0000    0     1.008          3.272444415289833         -6.477176163749000          7.738848037609255
  34 Cl   17.0000    0    35.453          0.645696743247285        -10.255458691114606         -2.434543626961418
  35 H     1.0000    0     1.008         -4.619282466553652        -16.190334477033822         -4.218123843940313
  36 H     1.0000    0     1.008         -1.130262208233506        -13.840012164409009         -2.202054400157354
  37 H     1.0000    0     1.008         -1.898913982384377        -18.165219229454102         -3.918983976392847
  38 C     6.0000    0    12.011         -3.355734094642413        -17.131206442399606         -2.879194296546955
  39 N     7.0000    0    14.007         -2.168587350325609        -15.223104611552108         -1.231294526257472
  40 Cl   17.0000    0    35.453         -4.803596905025661        -11.284758501191103          2.041359648633227
  41 H     1.0000    0     1.008         -3.481814732571504        -14.132883810370256         -0.178443059373916
  42 H     1.0000    0     1.008         -0.913349993951355        -15.982698928343092          0.106455832028320
  43 H     1.0000    0     1.008         -4.445166880026416        -18.455547304039094         -1.725554286310709
  44 Cl   17.0000    0    35.453          1.669376507801498        -16.286292880388210          3.032022118175568
  45 H     1.0000    0     1.008         -5.708582971108281          2.150226771208430         -7.104287450469170
  46 H     1.0000    0     1.008         -4.618180756217576          1.767757540059572         -2.624430867802361
  47 C     6.0000    0    12.011         -4.575306649691171          3.619282860183606         -6.192564510719120
  48 H     1.0000    0     1.008         -5.806975341723159          5.180340265988738         -5.628233705620083
  49 N     7.0000    0    14.007         -3.326789159449141          2.543423977619559         -3.946802634810302
  50 H     1.0000    0     1.008         -2.136584838247653          1.002892777081080         -4.390481985163002
  51 H     1.0000    0     1.008         -3.149406236436354          4.310525782710661         -7.519741851285623
  52 H     1.0000    0     1.008         -2.203273273513733          3.846414713398003         -2.968933611194607
  53 H     1.0000    0     1.008          6.845918424261054        -16.079587076955367          9.333999882322594
  54 H     1.0000    0     1.008          4.430667011400838        -14.772845234801091          5.551731922540549
  55 C     6.0000    0    12.011          7.619634664450833        -14.723047171719998          7.979893944347715
  56 H     1.0000    0     1.008          8.875153590019043        -15.702654743378901          6.661706031000277
  57 N     7.0000    0    14.007          5.542160459672238        -13.504126572187442          6.579673019526755
  58 H     1.0000    0     1.008          4.303004672697654        -12.458559999550154          7.767430145384815
  59 H     1.0000    0     1.008          8.688014010976820        -13.276289851125092          8.999051594263456
  60 H     1.0000    0     1.008          6.179119109276271        -12.142552436531306          5.268152059979791
* core charge reduced due to ECP

--------------------------------
INTERNAL COORDINATES (ANGSTROEM)
--------------------------------
 C      0   0   0   0.000000     0.000     0.000
 N      1   0   0   1.474351     0.000     0.000
 H      1   2   0   1.094057   109.379     0.000
 H      1   2   3   1.093747   109.392   240.247
 H      1   2   3   1.093743   109.882   120.181
 H      2   1   3   1.059937   113.525    58.337
 H      2   1   3   1.049786   114.205   300.796
 H      2   1   3   1.052480   114.026   179.570
 Pb     6   2   1   3.319520    99.105   182.274
 Cl     7   2   1   2.118534   152.802   158.774
 Cl     8   2   1   2.062546   162.818   183.207
 Cl     6   2   1   2.048552   159.086   194.983
 Cl     9   6   2   3.412062   130.166   242.260
 Cl     9   6   2   3.070641   138.026     4.135
 Cl     9   6   2   2.853107   116.752   139.456
 N     13   9   6   3.127784    74.739   193.467
 C     16  13   9   1.481437   118.404   194.527
 H     16  13   9   1.054191     8.313   147.898
 H     16  13   9   1.045770    96.487   313.676
 H     17  16  13   1.091638   108.854   289.206
 H     17  16  13   1.092106   108.201   170.001
 H     17  16  13   1.093521   108.670    49.892
 H     16  13   9   1.027810   110.052    65.212
 Cl    10   7   2   4.378865   151.901   269.933
 Cl    24  10   7   4.096123    98.956    52.321
 Pb    15   9   6   2.889191   137.618   252.939
 N     25  24  10   3.131096    49.926   344.342
 C     27  25  24   1.480482   119.191   236.044
 H     27  25  24   1.044781    96.072   356.300
 H     27  25  24   1.029741   108.577   106.251
 H     28  27  25   1.093789   108.810    51.283
 H     28  27  25   1.091975   108.924   290.701
 H     28  27  25   1.091334   108.308   171.813
 H     27  25  24   1.054075     8.891   189.260
 Cl    26  15   9   2.786272    95.777   316.267
 H     21  17  16   3.848588   138.761   122.863
 H     35  26  15   2.120483    85.509   224.426
 H     36  21  17   1.785929   125.185   216.379
 C     38  36  21   1.093832    35.291    87.016
 N     37  35  26   1.049512   152.161    20.106
 Cl    23  16  13   2.764797   136.135   116.406
 H     40  37  35   1.061214   102.750    37.621
 H     40  37  35   1.050677   105.403   287.280
 H     39  38  36   1.093699   109.375   119.736
 Cl    43  40  37   2.071347   161.877    53.604
 H     13   9   6   4.010710    96.828   104.761
 H     13   9   6   2.034930    72.976    87.524
 C     46  13   9   1.093962    83.343   310.304
 H     48  46  13   1.093795   109.295   269.450
 N     47  13   9   1.060735   162.497    40.938
 H     50  47  13   1.056590   103.419    15.888
 H     48  46  13   1.093799   109.429   149.548
 H     50  47  13   1.047223   107.131   263.919
 H     25  24  10   4.188533    74.946   201.620
 H     45  43  40   2.134112   152.828   342.206
 C     54  25  24   1.093803    73.143    15.925
 H     56  54  25   1.093949   109.516   202.118
 N     55  45  43   1.045273   162.075    14.548
 H     58  55  45   1.063565   107.143    61.988
 H     56  54  25   1.093903   109.256    82.311
 H     58  55  45   1.055664   106.017   312.153

---------------------------
INTERNAL COORDINATES (A.U.)
---------------------------
 C      0   0   0   0.000000     0.000     0.000
 N      1   0   0   2.786120     0.000     0.000
 H      1   2   0   2.067468   109.379     0.000
 H      1   2   3   2.066883   109.392   240.247
 H      1   2   3   2.066875   109.882   120.181
 H      2   1   3   2.002991   113.525    58.337
 H      2   1   3   1.983809   114.205   300.796
 H      2   1   3   1.988899   114.026   179.570
 Pb     6   2   1   6.272984    99.105   182.274
 Cl     7   2   1   4.003450   152.802   158.774
 Cl     8   2   1   3.897647   162.818   183.207
 Cl     6   2   1   3.871203   159.086   194.983
 Cl     9   6   2   6.447862   130.166   242.260
 Cl     9   6   2   5.802670   138.026     4.135
 Cl     9   6   2   5.391592   116.752   139.456
 N     13   9   6   5.910655    74.739   193.467
 C     16  13   9   2.799511   118.404   194.527
 H     16  13   9   1.992133     8.313   147.898
 H     16  13   9   1.976218    96.487   313.676
 H     17  16  13   2.062897   108.854   289.206
 H     17  16  13   2.063782   108.201   170.001
 H     17  16  13   2.066456   108.670    49.892
 H     16  13   9   1.942279   110.052    65.212
 Cl    10   7   2   8.274855   151.901   269.933
 Cl    24  10   7   7.740550    98.956    52.321
 Pb    15   9   6   5.459780   137.618   252.939
 N     25  24  10   5.916913    49.926   344.342
 C     27  25  24   2.797706   119.191   236.044
 H     27  25  24   1.974351    96.072   356.300
 H     27  25  24   1.945929   108.577   106.251
 H     28  27  25   2.066961   108.810    51.283
 H     28  27  25   2.063535   108.924   290.701
 H     28  27  25   2.062322   108.308   171.813
 H     27  25  24   1.991912     8.891   189.260
 Cl    26  15   9   5.265291    95.777   316.267
 H     21  17  16   7.272777   138.761   122.863
 H     35  26  15   4.007132    85.509   224.426
 H     36  21  17   3.374916   125.185   216.379
 C     38  36  21   2.067044    35.291    87.016
 N     37  35  26   1.983290   152.161    20.106
 Cl    23  16  13   5.224708   136.135   116.406
 H     40  37  35   2.005404   102.750    37.621
 H     40  37  35   1.985492   105.403   287.280
 H     39  38  36   2.066792   109.375   119.736
 Cl    43  40  37   3.914279   161.877    53.604
 H     13   9   6   7.579143    96.828   104.761
 H     13   9   6   3.845460    72.976    87.524
 C     46  13   9   2.067288    83.343   310.304
 H     48  46  13   2.066973   109.295   269.450
 N     47  13   9   2.004499   162.497    40.938
 H     50  47  13   1.996666   103.419    15.888
 H     48  46  13   2.066981   109.429   149.548
 H     50  47  13   1.978965   107.131   263.919
 H     25  24  10   7.915181    74.946   201.620
 H     45  43  40   4.032888   152.828   342.206
 C     54  25  24   2.066988    73.143    15.925
 H     56  54  25   2.067263   109.516   202.118
 N     55  45  43   1.975279   162.075    14.548
 H     58  55  45   2.009847   107.143    61.988
 H     56  54  25   2.067178   109.256    82.311
 H     58  55  45   1.994915   106.017   312.153

---------------------
BASIS SET INFORMATION
---------------------
There are 5 groups of distinct atoms

 Group   1 Type C   : 11s6p2d1f contracted to 5s3p2d1f pattern {62111/411/11/1}
 Group   2 Type N   : 11s6p2d1f contracted to 5s3p2d1f pattern {62111/411/11/1}
 Group   3 Type H   : 5s1p contracted to 3s1p pattern {311/1}
 Group   4 Type Pb  : 10s9p8d2f contracted to 6s5p3d2f pattern {421111/33111/611/11}
 Group   5 Type Cl  : 14s9p3d1f contracted to 5s5p2d1f pattern {73211/51111/21/1}

Atom   0C    basis set group =>   1
Atom   1N    basis set group =>   2
Atom   2H    basis set group =>   3
Atom   3H    basis set group =>   3
Atom   4H    basis set group =>   3
Atom   5H    basis set group =>   3
Atom   6H    basis set group =>   3
Atom   7H    basis set group =>   3
Atom   8Pb   basis set group =>   4
Atom   9Cl   basis set group =>   5
Atom  10Cl   basis set group =>   5
Atom  11Cl   basis set group =>   5
Atom  12Cl   basis set group =>   5
Atom  13Cl   basis set group =>   5
Atom  14Cl   basis set group =>   5
Atom  15N    basis set group =>   2
Atom  16C    basis set group =>   1
Atom  17H    basis set group =>   3
Atom  18H    basis set group =>   3
Atom  19H    basis set group =>   3
Atom  20H    basis set group =>   3
Atom  21H    basis set group =>   3
Atom  22H    basis set group =>   3
Atom  23Cl   basis set group =>   5
Atom  24Cl   basis set group =>   5
Atom  25Pb   basis set group =>   4
Atom  26N    basis set group =>   2
Atom  27C    basis set group =>   1
Atom  28H    basis set group =>   3
Atom  29H    basis set group =>   3
Atom  30H    basis set group =>   3
Atom  31H    basis set group =>   3
Atom  32H    basis set group =>   3
Atom  33H    basis set group =>   3
Atom  34Cl   basis set group =>   5
Atom  35H    basis set group =>   3
Atom  36H    basis set group =>   3
Atom  37H    basis set group =>   3
Atom  38C    basis set group =>   1
Atom  39N    basis set group =>   2
Atom  40Cl   basis set group =>   5
Atom  41H    basis set group =>   3
Atom  42H    basis set group =>   3
Atom  43H    basis set group =>   3
Atom  44Cl   basis set group =>   5
Atom  45H    basis set group =>   3
Atom  46H    basis set group =>   3
Atom  47C    basis set group =>   1
Atom  48H    basis set group =>   3
Atom  49N    basis set group =>   2
Atom  50H    basis set group =>   3
Atom  51H    basis set group =>   3
Atom  52H    basis set group =>   3
Atom  53H    basis set group =>   3
Atom  54H    basis set group =>   3
Atom  55C    basis set group =>   1
Atom  56H    basis set group =>   3
Atom  57N    basis set group =>   2
Atom  58H    basis set group =>   3
Atom  59H    basis set group =>   3
Atom  60H    basis set group =>   3
-------------------------------
AUXILIARY BASIS SET INFORMATION
-------------------------------
There are 5 groups of distinct atoms

 Group   1 Type C   : 12s5p4d2f1g contracted to 6s4p3d1f1g pattern {711111/2111/211/2/1}
 Group   2 Type N   : 12s5p4d2f1g contracted to 6s4p3d1f1g pattern {711111/2111/211/2/1}
 Group   3 Type H   : 5s2p1d contracted to 3s1p1d pattern {311/2/1}
 Group   4 Type Pb  : 31s12p8d6f3g contracted to 31s12p8d6f3g pattern {1111111111111111111111111111111/111111111111/11111111/111111/111}
 Group   5 Type Cl  : 14s5p5d2f1g contracted to 8s4p3d1f1g pattern {71111111/2111/311/2/1}

Atom   0C    basis set group =>   1
Atom   1N    basis set group =>   2
Atom   2H    basis set group =>   3
Atom   3H    basis set group =>   3
Atom   4H    basis set group =>   3
Atom   5H    basis set group =>   3
Atom   6H    basis set group =>   3
Atom   7H    basis set group =>   3
Atom   8Pb   basis set group =>   4
Atom   9Cl   basis set group =>   5
Atom  10Cl   basis set group =>   5
Atom  11Cl   basis set group =>   5
Atom  12Cl   basis set group =>   5
Atom  13Cl   basis set group =>   5
Atom  14Cl   basis set group =>   5
Atom  15N    basis set group =>   2
Atom  16C    basis set group =>   1
Atom  17H    basis set group =>   3
Atom  18H    basis set group =>   3
Atom  19H    basis set group =>   3
Atom  20H    basis set group =>   3
Atom  21H    basis set group =>   3
Atom  22H    basis set group =>   3
Atom  23Cl   basis set group =>   5
Atom  24Cl   basis set group =>   5
Atom  25Pb   basis set group =>   4
Atom  26N    basis set group =>   2
Atom  27C    basis set group =>   1
Atom  28H    basis set group =>   3
Atom  29H    basis set group =>   3
Atom  30H    basis set group =>   3
Atom  31H    basis set group =>   3
Atom  32H    basis set group =>   3
Atom  33H    basis set group =>   3
Atom  34Cl   basis set group =>   5
Atom  35H    basis set group =>   3
Atom  36H    basis set group =>   3
Atom  37H    basis set group =>   3
Atom  38C    basis set group =>   1
Atom  39N    basis set group =>   2
Atom  40Cl   basis set group =>   5
Atom  41H    basis set group =>   3
Atom  42H    basis set group =>   3
Atom  43H    basis set group =>   3
Atom  44Cl   basis set group =>   5
Atom  45H    basis set group =>   3
Atom  46H    basis set group =>   3
Atom  47C    basis set group =>   1
Atom  48H    basis set group =>   3
Atom  49N    basis set group =>   2
Atom  50H    basis set group =>   3
Atom  51H    basis set group =>   3
Atom  52H    basis set group =>   3
Atom  53H    basis set group =>   3
Atom  54H    basis set group =>   3
Atom  55C    basis set group =>   1
Atom  56H    basis set group =>   3
Atom  57N    basis set group =>   2
Atom  58H    basis set group =>   3
Atom  59H    basis set group =>   3
Atom  60H    basis set group =>   3

-------------------------
ECP PARAMETER INFORMATION
-------------------------

 Group 1, Type Pb ECP SD(60,MDF) (replacing 60 core electrons, lmax=5)

Atom   8Pb   ECP group =>   1
Atom  25Pb   ECP group =>   1


------------------------------------------------------------------------------
                           ORCA GTO INTEGRAL CALCULATION
                           -- RI-GTO INTEGRALS CHOSEN --
------------------------------------------------------------------------------

                         BASIS SET STATISTICS AND STARTUP INFO

Gaussian basis set:
 # of primitive gaussian shells          ...  811
 # of primitive gaussian functions       ... 1715
 # of contracted shells                  ...  451
 # of contracted basis functions         ... 1095
 Highest angular momentum                ...    3
 Maximum contraction depth               ...    7
Auxiliary gaussian basis set:
 # of primitive gaussian shells          ...  993
 # of primitive gaussian functions       ... 2615
 # of contracted shells                  ...  667
 # of contracted aux-basis functions     ... 1897
 Highest angular momentum                ...    4
 Maximum contraction depth               ...    7
Ratio of auxiliary to basis functions    ...  1.73
Integral package used                  ... LIBINT
 One Electron integrals                  
   ECP integrals                         ... done
 Ordering auxiliary basis shells         ... done
 Integral threshhold             Thresh  ...  2.500e-11
 Primitive cut-off               TCut    ...  2.500e-12
 Pre-screening matrix                    ... done
 Shell pair data                         ... 
 Ordering of the shell pairs             ... done (   0.009 sec) 48297 of 101926 pairs
 Determination of significant pairs      ... done (   0.000 sec)
 Creation of shell pair data             ... done (   0.013 sec)
 Storage of shell pair data              ... done (   0.007 sec)
 Shell pair data done in (   0.029 sec)
 Computing two index integrals           ... done
 Cholesky decomposition of the V-matrix  ... done


Timings:
 Total evaluation time                   ...   5.858 sec (  0.098 min)
 One electron matrix time                ...   3.952 sec (  0.066 min) = 67.5%
 Schwartz matrix evaluation time         ...   1.591 sec (  0.027 min) = 27.2%
 Two index repulsion integral time       ...   0.111 sec (  0.002 min) =  1.9%
 Cholesky decomposition of V             ...   0.146 sec (  0.002 min) =  2.5%
 Three index repulsion integral time     ...   0.000 sec (  0.000 min) =  0.0%

-------------------------------------------------------------------------------
                                 ORCA SCF
-------------------------------------------------------------------------------

------------
SCF SETTINGS
------------
Hamiltonian:
 Density Functional     Method          .... DFT(GTOs)
 Exchange Functional    Exchange        .... B88
   X-Alpha parameter    XAlpha          ....  0.666667
   Becke's b parameter  XBeta           ....  0.004200
 Correlation Functional Correlation     .... LYP
 LDA part of GGA corr.  LDAOpt          .... VWN-3
 Gradients option       PostSCFGGA      .... off
 Hybrid DFT is turned on
   Fraction HF Exchange ScalHFX         ....  0.530000
   Scaling of DF-GGA-X  ScalDFX         ....  0.470000
   Scaling of DF-GGA-C  ScalDFC         ....  0.730000
   Scaling of DF-LDA-C  ScalLDAC        ....  0.730000
   Perturbative correction              ....  0.270000
 RI-approximation to the Coulomb term is turned on
   Number of auxiliary basis functions  .... 1897
   RIJ-COSX (HFX calculated with COS-X)).... on


General Settings:
 Integral files         IntName         .... Pb2Cl11_6NH3CH3_-1_mp2_sp2_0.orca
 Hartree-Fock type      HFTyp           .... RHF
 Total Charge           Charge          ....   -1
 Multiplicity           Mult            ....    1
 Number of Electrons    NEL             ....  346
 Basis Dimension        Dim             .... 1095
 Nuclear Repulsion      ENuc            ....   5899.5878990413 Eh

Convergence Acceleration:
 DIIS                   CNVDIIS         .... on
   Start iteration      DIISMaxIt       ....    12
   Startup error        DIISStart       ....  0.200000
   # of expansion vecs  DIISMaxEq       ....     5
   Bias factor          DIISBfac        ....   1.050
   Max. coefficient     DIISMaxC        ....  10.000
 Newton-Raphson         CNVNR           .... off
 SOSCF                  CNVSOSCF        .... on
   Start iteration      SOSCFMaxIt      ....   150
   Startup grad/error   SOSCFStart      ....  0.003300
 Level Shifting         CNVShift        .... on
   Level shift para.    LevelShift      ....    0.2500
   Turn off err/grad.   ShiftErr        ....    0.0010
 Zerner damping         CNVZerner       .... off
 Static damping         CNVDamp         .... on
   Fraction old density DampFac         ....    0.7000
   Max. Damping (<1)    DampMax         ....    0.9800
   Min. Damping (>=0)   DampMin         ....    0.0000
   Turn off err/grad.   DampErr         ....    0.1000
 Fernandez-Rico         CNVRico         .... off

SCF Procedure:
 Maximum # iterations   MaxIter         ....   125
 SCF integral mode      SCFMode         .... Direct
   Integral package                     .... LIBINT
 Reset frequeny         DirectResetFreq ....    20
 Integral Threshold     Thresh          ....  2.500e-11 Eh
 Primitive CutOff       TCut            ....  2.500e-12 Eh

Convergence Tolerance:
 Convergence Check Mode ConvCheckMode   .... Total+1el-Energy
 Energy Change          TolE            ....  1.000e-08 Eh
 1-El. energy change                    ....  1.000e-05 Eh
 Orbital Gradient       TolG            ....  1.000e-05
 Orbital Rotation angle TolX            ....  1.000e-05
 DIIS Error             TolErr          ....  5.000e-07


Diagonalization of the overlap matrix:
Smallest eigenvalue                        ... 8.206e-04
Time for diagonalization                   ...    0.425 sec
Threshold for overlap eigenvalues          ... 1.000e-08
Number of eigenvalues below threshold      ... 0
Time for construction of square roots      ...    0.194 sec
Total time needed                          ...    0.622 sec

---------------------
INITIAL GUESS: MOREAD
---------------------
Guess MOs are being read from file: previous.gbw
Input Geometry matches current geometry (good)
Input basis set matches current basis set (good)
MOs were renormalized
MOs were reorthogonalized (Cholesky)
                      ------------------
                      INITIAL GUESS DONE (   0.7 sec)
                      ------------------
-------------------
DFT GRID GENERATION
-------------------

General Integration Accuracy     IntAcc      ...  5.010
Radial Grid Type                 RadialGrid  ... Gauss-Chebyshev
Angular Grid (max. acc.)         AngularGrid ... Lebedev-434
Angular grid pruning method      GridPruning ... 3 (G Style)
Weight generation scheme         WeightScheme... Becke
Basis function cutoff            BFCut       ...    1.0000e-11
Integration weight cutoff        WCut        ...    1.0000e-14
Grids for H and He will be reduced by one unit

# of grid points (after initial pruning)     ... 536944 (   0.4 sec)
# of grid points (after weights+screening)   ... 471496 (  11.6 sec)
nearest neighbour list constructed           ...    0.0 sec
Grid point re-assignment to atoms done       ...    0.1 sec
Grid point division into batches done        ...    2.9 sec
Reduced shell lists constructed in   23.7 sec

Total number of grid points                  ...   471496
Total number of batches                      ...     7397
Average number of points per batch           ...       63
Average number of grid points per atom       ...     7729
Average number of shells per batch           ...   108.16 (23.98%)
Average number of basis functions per batch  ...   250.84 (22.91%)
Average number of large shells per batch     ...    63.62 (58.82%)
Average number of large basis fcns per batch ...   150.35 (59.94%)
Maximum spatial batch extension              ...  29.24, 29.26, 28.31 au
Average spatial batch extension              ...   1.80,  1.77,  1.80 au

Time for grid setup =   35.753 sec

--------------------
COSX GRID GENERATION
--------------------

General Integration Accuracy     IntAcc      ...  3.340
Radial Grid Type                 RadialGrid  ... Gauss-Chebyshev
Angular Grid (max. acc.)         AngularGrid ... Lebedev-50
Angular grid pruning method      GridPruning ... 3 (G Style)
Weight generation scheme         WeightScheme... Becke
Basis function cutoff            BFCut       ...    1.0000e-11
Integration weight cutoff        WCut        ...    1.0000e-14
Grids for H and He will be reduced by one unit

# of grid points (after initial pruning)     ...  28950 (   0.0 sec)
# of grid points (after weights+screening)   ...  26067 (   0.6 sec)
nearest neighbour list constructed           ...    0.0 sec
Grid point re-assignment to atoms done       ...    0.0 sec
Grid point division into batches done        ...    0.0 sec
Reduced shell lists constructed in    1.6 sec

Total number of grid points                  ...    26067
Total number of batches                      ...      439
Average number of points per batch           ...       59
Average number of grid points per atom       ...      427
Average number of shells per batch           ...   138.69 (30.75%)
Average number of basis functions per batch  ...   329.10 (30.05%)
Average number of large shells per batch     ...    81.97 (59.10%)
Average number of large basis fcns per batch ...   196.44 (59.69%)
Maximum spatial batch extension              ...  23.75, 23.09, 23.77 au
Average spatial batch extension              ...   4.50,  4.30,  4.60 au

Overlap Fitting                  UseSFitting ... on
Constructing numerical overlap ... done (      0.9 sec)
Inverting numerical overlap    ... done (      0.1 sec)
Obtaining analytic overlap     ... done (      0.0 sec)
Final contraction and storage  ... done (      0.1 sec)


General Integration Accuracy     IntAcc      ...  3.670
Radial Grid Type                 RadialGrid  ... Gauss-Chebyshev
Angular Grid (max. acc.)         AngularGrid ... Lebedev-50
Angular grid pruning method      GridPruning ... 3 (G Style)
Weight generation scheme         WeightScheme... Becke
Basis function cutoff            BFCut       ...    1.0000e-11
Integration weight cutoff        WCut        ...    1.0000e-14
Grids for H and He will be reduced by one unit

# of grid points (after initial pruning)     ...  36590 (   0.0 sec)
# of grid points (after weights+screening)   ...  32862 (   0.8 sec)
nearest neighbour list constructed           ...    0.0 sec
Grid point re-assignment to atoms done       ...    0.0 sec
Grid point division into batches done        ...    0.0 sec
Reduced shell lists constructed in    2.0 sec

Total number of grid points                  ...    32862
Total number of batches                      ...      539
Average number of points per batch           ...       60
Average number of grid points per atom       ...      539
Average number of shells per batch           ...   134.46 (29.81%)
Average number of basis functions per batch  ...   318.19 (29.06%)
Average number of large shells per batch     ...    79.37 (59.03%)
Average number of large basis fcns per batch ...   189.56 (59.58%)
Maximum spatial batch extension              ...  23.74, 22.69, 24.65 au
Average spatial batch extension              ...   4.27,  3.99,  4.27 au

Overlap Fitting                  UseSFitting ... on
Constructing numerical overlap ... done (      1.0 sec)
Inverting numerical overlap    ... done (      0.1 sec)
Obtaining analytic overlap     ... done (      0.0 sec)
Final contraction and storage  ... done (      0.1 sec)


General Integration Accuracy     IntAcc      ...  4.010
Radial Grid Type                 RadialGrid  ... Gauss-Chebyshev
Angular Grid (max. acc.)         AngularGrid ... Lebedev-110
Angular grid pruning method      GridPruning ... 3 (G Style)
Weight generation scheme         WeightScheme... Becke
Basis function cutoff            BFCut       ...    1.0000e-11
Integration weight cutoff        WCut        ...    1.0000e-14
Grids for H and He will be reduced by one unit

# of grid points (after initial pruning)     ...  66396 (   0.0 sec)
# of grid points (after weights+screening)   ...  59870 (   1.4 sec)
nearest neighbour list constructed           ...    0.0 sec
Grid point re-assignment to atoms done       ...    0.0 sec
Grid point division into batches done        ...    0.0 sec
Reduced shell lists constructed in    3.5 sec

Total number of grid points                  ...    59870
Total number of batches                      ...      968
Average number of points per batch           ...       61
Average number of grid points per atom       ...      981
Average number of shells per batch           ...   128.84 (28.57%)
Average number of basis functions per batch  ...   303.98 (27.76%)
Average number of large shells per batch     ...    76.30 (59.22%)
Average number of large basis fcns per batch ...   182.27 (59.96%)
Maximum spatial batch extension              ...  27.69, 21.91, 25.51 au
Average spatial batch extension              ...   3.76,  3.51,  3.75 au

Overlap Fitting                  UseSFitting ... on
Constructing numerical overlap ... done (      1.7 sec)
Inverting numerical overlap    ... done (      0.1 sec)
Obtaining analytic overlap     ... done (      0.0 sec)
Final contraction and storage  ... done (      0.1 sec)

Time for X-Grid setup             =   14.289 sec
--------------
SCF ITERATIONS
--------------
ITER       Energy         Delta-E        Max-DP      RMS-DP      [F,P]     Damp
               ***  Starting incremental Fock matrix formation  ***
                      *** Initiating the SOSCF procedure ***
                      *** Re-Reading the Fockian *** 
                      *** Removing any level shift *** 
ITER      Energy       Delta-E        Grad      Rot      Max-DP    RMS-DP
  0  -6023.63861056 -6023.6386105555  0.000001  0.000001  0.000006  0.000000
               *** Restarting incremental Fock matrix formation ***
                  ***Gradient check signals convergence***
              ***Rediagonalizing the Fockian in SOSCF/NRSCF***

               *****************************************************
               *                     SUCCESS                       *
               *           SCF CONVERGED AFTER   1 CYCLES          *
               *****************************************************

Old exchange energy                            =   -221.018352533 Eh
New exchange energy                            =   -221.030527360 Eh
Exchange energy change after final integration =     -0.012174826 Eh
Total energy after final integration           =  -6023.650785381 Eh
Final COS-X integration done in                =   362.474 sec

----------------
TOTAL SCF ENERGY
----------------

Total Energy       :        -6023.65078538 Eh         -163911.87099 eV

Components:
Nuclear Repulsion  :         5899.58789904 Eh          160535.94822 eV
Electronic Energy  :       -11923.23868442 Eh         -324447.81921 eV

One Electron Energy:       -20267.81448738 Eh         -551515.27070 eV
Two Electron Energy:         8344.57580296 Eh          227067.45148 eV

Virial components:
Potential Energy   :       -11780.43910692 Eh         -320562.04516 eV
Kinetic Energy     :         5756.78832154 Eh          156650.17417 eV
Virial Ratio       :            2.04635614


DFT components:
N(Alpha)           :      173.000061826414 electrons
N(Beta)            :      173.000061826414 electrons
N(Total)           :      346.000123652827 electrons
E(X)               :     -196.139341307254 Eh       
E(C)               :       -9.610065552141 Eh       
E(XC)              :     -205.749406859395 Eh       

---------------
SCF CONVERGENCE
---------------

  Last Energy change         ...    1.0241e-09  Tolerance :   1.0000e-08
  Last MAX-Density change    ...    1.4100e-13  Tolerance :   1.0000e-07
  Last RMS-Density change    ...    5.3042e-16  Tolerance :   5.0000e-09
  Last Orbital Gradient      ...    4.1769e-07  Tolerance :   1.0000e-05
  Last Orbital Rotation      ...    6.6887e-07  Tolerance :   1.0000e-05

             **** THE GBW FILE WAS UPDATED (Pb2Cl11_6NH3CH3_-1_mp2_sp2_0.orca.gbw) ****
             **** DENSITY FILE WAS UPDATED (Pb2Cl11_6NH3CH3_-1_mp2_sp2_0.orca.scfp.tmp) ****
             **** ENERGY FILE WAS UPDATED (Pb2Cl11_6NH3CH3_-1_mp2_sp2_0.orca.en.tmp) ****
----------------
ORBITAL ENERGIES
----------------

  NO   OCC          E(Eh)            E(eV) 
   0   2.0000    -102.757657     -2796.1780 
   1   2.0000    -102.739785     -2795.6917 
   2   2.0000    -102.738594     -2795.6593 
   3   2.0000    -102.734740     -2795.5544 
   4   2.0000    -102.731566     -2795.4680 
   5   2.0000    -102.730048     -2795.4267 
   6   2.0000    -102.728495     -2795.3845 
   7   2.0000    -102.727494     -2795.3572 
   8   2.0000    -102.724763     -2795.2829 
   9   2.0000    -102.719037     -2795.1271 
  10   2.0000    -102.717335     -2795.0808 
  11   2.0000     -14.843091      -403.9010 
  12   2.0000     -14.840782      -403.8382 
  13   2.0000     -14.832741      -403.6194 
  14   2.0000     -14.831536      -403.5866 
  15   2.0000     -14.831279      -403.5796 
  16   2.0000     -14.830129      -403.5483 
  17   2.0000     -10.614489      -288.8349 
  18   2.0000     -10.612417      -288.7786 
  19   2.0000     -10.605229      -288.5829 
  20   2.0000     -10.603616      -288.5391 
  21   2.0000     -10.582246      -287.9576 
  22   2.0000     -10.581521      -287.9378 
  23   2.0000      -9.765216      -265.7250 
  24   2.0000      -9.746604      -265.2186 
  25   2.0000      -9.745504      -265.1886 
  26   2.0000      -9.741918      -265.0911 
  27   2.0000      -9.738493      -264.9979 
  28   2.0000      -9.737249      -264.9640 
  29   2.0000      -9.735319      -264.9115 
  30   2.0000      -9.734590      -264.8917 
  31   2.0000      -9.731834      -264.8167 
  32   2.0000      -9.726140      -264.6617 
  33   2.0000      -9.724398      -264.6143 
  34   2.0000      -7.401987      -201.4183 
  35   2.0000      -7.400684      -201.3828 
  36   2.0000      -7.400670      -201.3825 
  37   2.0000      -7.383430      -200.9133 
  38   2.0000      -7.382355      -200.8841 
  39   2.0000      -7.382326      -200.8833 
  40   2.0000      -7.381896      -200.8716 
  41   2.0000      -7.381258      -200.8542 
  42   2.0000      -7.380789      -200.8415 
  43   2.0000      -7.378264      -200.7728 
  44   2.0000      -7.378123      -200.7689 
  45   2.0000      -7.377422      -200.7499 
  46   2.0000      -7.374966      -200.6830 
  47   2.0000      -7.374496      -200.6702 
  48   2.0000      -7.373975      -200.6561 
  49   2.0000      -7.373658      -200.6474 
  50   2.0000      -7.373386      -200.6400 
  51   2.0000      -7.372773      -200.6234 
  52   2.0000      -7.371832      -200.5977 
  53   2.0000      -7.371313      -200.5836 
  54   2.0000      -7.370836      -200.5706 
  55   2.0000      -7.370782      -200.5692 
  56   2.0000      -7.370648      -200.5655 
  57   2.0000      -7.370232      -200.5542 
  58   2.0000      -7.368055      -200.4950 
  59   2.0000      -7.367922      -200.4913 
  60   2.0000      -7.367488      -200.4796 
  61   2.0000      -7.362433      -200.3420 
  62   2.0000      -7.362057      -200.3317 
  63   2.0000      -7.361969      -200.3293 
  64   2.0000      -7.360681      -200.2943 
  65   2.0000      -7.360331      -200.2848 
  66   2.0000      -7.360230      -200.2820 
  67   2.0000      -5.706887      -155.2923 
  68   2.0000      -5.704472      -155.2266 
  69   2.0000      -3.477985       -94.6408 
  70   2.0000      -3.476761       -94.6075 
  71   2.0000      -3.476497       -94.6003 
  72   2.0000      -3.475625       -94.5766 
  73   2.0000      -3.474300       -94.5405 
  74   2.0000      -3.474099       -94.5350 
  75   2.0000      -1.025594       -27.9078 
  76   2.0000      -1.023371       -27.8474 
  77   2.0000      -1.015875       -27.6434 
  78   2.0000      -1.014280       -27.6000 
  79   2.0000      -1.009777       -27.4774 
  80   2.0000      -1.008458       -27.4415 
  81   2.0000      -0.869343       -23.6560 
  82   2.0000      -0.867030       -23.5931 
  83   2.0000      -0.866549       -23.5800 
  84   2.0000      -0.865512       -23.5518 
  85   2.0000      -0.864882       -23.5346 
  86   2.0000      -0.864822       -23.5330 
  87   2.0000      -0.863683       -23.5020 
  88   2.0000      -0.863327       -23.4923 
  89   2.0000      -0.862538       -23.4708 
  90   2.0000      -0.861298       -23.4371 
  91   2.0000      -0.779992       -21.2247 
  92   2.0000      -0.770554       -20.9679 
  93   2.0000      -0.767876       -20.8950 
  94   2.0000      -0.760205       -20.6862 
  95   2.0000      -0.757626       -20.6160 
  96   2.0000      -0.755415       -20.5559 
  97   2.0000      -0.753432       -20.5019 
  98   2.0000      -0.750645       -20.4261 
  99   2.0000      -0.747636       -20.3442 
 100   2.0000      -0.746356       -20.3094 
 101   2.0000      -0.744352       -20.2549 
 102   2.0000      -0.743640       -20.2355 
 103   2.0000      -0.741605       -20.1801 
 104   2.0000      -0.738416       -20.0933 
 105   2.0000      -0.736619       -20.0444 
 106   2.0000      -0.726669       -19.7737 
 107   2.0000      -0.725496       -19.7418 
 108   2.0000      -0.558826       -15.2064 
 109   2.0000      -0.556601       -15.1459 
 110   2.0000      -0.551438       -15.0054 
 111   2.0000      -0.549665       -14.9571 
 112   2.0000      -0.549592       -14.9552 
 113   2.0000      -0.547942       -14.9102 
 114   2.0000      -0.546541       -14.8721 
 115   2.0000      -0.544833       -14.8257 
 116   2.0000      -0.543283       -14.7835 
 117   2.0000      -0.541976       -14.7479 
 118   2.0000      -0.533865       -14.5272 
 119   2.0000      -0.532557       -14.4916 
 120   2.0000      -0.497075       -13.5261 
 121   2.0000      -0.494825       -13.4649 
 122   2.0000      -0.486123       -13.2281 
 123   2.0000      -0.484421       -13.1818 
 124   2.0000      -0.468118       -12.7381 
 125   2.0000      -0.464880       -12.6500 
 126   2.0000      -0.452166       -12.3041 
 127   2.0000      -0.436659       -11.8821 
 128   2.0000      -0.422736       -11.5032 
 129   2.0000      -0.420641       -11.4462 
 130   2.0000      -0.420252       -11.4356 
 131   2.0000      -0.418150       -11.3784 
 132   2.0000      -0.413048       -11.2396 
 133   2.0000      -0.411325       -11.1927 
 134   2.0000      -0.411115       -11.1870 
 135   2.0000      -0.409501       -11.1431 
 136   2.0000      -0.398013       -10.8305 
 137   2.0000      -0.397055       -10.8044 
 138   2.0000      -0.391487       -10.6529 
 139   2.0000      -0.390814       -10.6346 
 140   2.0000      -0.287106        -7.8125 
 141   2.0000      -0.274248        -7.4627 
 142   2.0000      -0.268764        -7.3134 
 143   2.0000      -0.263579        -7.1723 
 144   2.0000      -0.257679        -7.0118 
 145   2.0000      -0.255166        -6.9434 
 146   2.0000      -0.254125        -6.9151 
 147   2.0000      -0.248099        -6.7511 
 148   2.0000      -0.245113        -6.6699 
 149   2.0000      -0.242839        -6.6080 
 150   2.0000      -0.241327        -6.5669 
 151   2.0000      -0.238995        -6.5034 
 152   2.0000      -0.238015        -6.4767 
 153   2.0000      -0.236743        -6.4421 
 154   2.0000      -0.234571        -6.3830 
 155   2.0000      -0.232032        -6.3139 
 156   2.0000      -0.231407        -6.2969 
 157   2.0000      -0.230005        -6.2587 
 158   2.0000      -0.229211        -6.2371 
 159   2.0000      -0.228660        -6.2222 
 160   2.0000      -0.228355        -6.2139 
 161   2.0000      -0.226834        -6.1725 
 162   2.0000      -0.225852        -6.1457 
 163   2.0000      -0.224583        -6.1112 
 164   2.0000      -0.223415        -6.0794 
 165   2.0000      -0.222898        -6.0654 
 166   2.0000      -0.222044        -6.0421 
 167   2.0000      -0.220807        -6.0085 
 168   2.0000      -0.219864        -5.9828 
 169   2.0000      -0.217969        -5.9312 
 170   2.0000      -0.215767        -5.8713 
 171   2.0000      -0.193991        -5.2788 
 172   2.0000      -0.185004        -5.0342 
 173   0.0000       0.096671         2.6305 
 174   0.0000       0.111078         3.0226 
 175   0.0000       0.118013         3.2113 
 176   0.0000       0.122160         3.3241 
 177   0.0000       0.125745         3.4217 
 178   0.0000       0.127847         3.4789 
 179   0.0000       0.128369         3.4931 
 180   0.0000       0.136859         3.7241 
 181   0.0000       0.137907         3.7526 
 182   0.0000       0.142530         3.8784 
 183   0.0000       0.166214         4.5229 
 184   0.0000       0.167679         4.5628 
 185   0.0000       0.180500         4.9117 
 186   0.0000       0.183979         5.0063 
 187   0.0000       0.186124         5.0647 
 188   0.0000       0.187175         5.0933 
 189   0.0000       0.196875         5.3572 
 190   0.0000       0.197710         5.3800 
 191   0.0000       0.198746         5.4082 
 192   0.0000       0.199838         5.4379 
 193   0.0000       0.204281         5.5588 
 194   0.0000       0.205910         5.6031 
 195   0.0000       0.207673         5.6511 
 196   0.0000       0.209428         5.6988 
 197   0.0000       0.212895         5.7932 
 198   0.0000       0.220770         6.0075 
 199   0.0000       0.231326         6.2947 
 200   0.0000       0.232147         6.3170 
 201   0.0000       0.238491         6.4897 
 202   0.0000       0.239828         6.5261 
 203   0.0000       0.247170         6.7258 
 204   0.0000       0.249132         6.7792 
 205   0.0000       0.252155         6.8615 
 206   0.0000       0.254104         6.9145 
 207   0.0000       0.257703         7.0125 
 208   0.0000       0.258323         7.0293 
 209   0.0000       0.267211         7.2712 
 210   0.0000       0.269175         7.3246 
 211   0.0000       0.271091         7.3768 
 212   0.0000       0.272058         7.4031 
 213   0.0000       0.273657         7.4466 
 214   0.0000       0.281701         7.6655 
 215   0.0000       0.284095         7.7306 
 216   0.0000       0.285949         7.7811 
 217   0.0000       0.288381         7.8472 
 218   0.0000       0.290405         7.9023 
 219   0.0000       0.295928         8.0526 
 220   0.0000       0.298616         8.1258 
 221   0.0000       0.300148         8.1674 
 222   0.0000       0.307776         8.3750 
 223   0.0000       0.312429         8.5016 
 224   0.0000       0.314868         8.5680 
 225   0.0000       0.324908         8.8412 
 226   0.0000       0.325349         8.8532 
 227   0.0000       0.339800         9.2464 
 228   0.0000       0.342639         9.3237 
 229   0.0000       0.347479         9.4554 
 230   0.0000       0.348338         9.4788 
 231   0.0000       0.349723         9.5165 
 232   0.0000       0.351506         9.5650 
 233   0.0000       0.358984         9.7685 
 234   0.0000       0.361363         9.8332 
 235   0.0000       0.363968         9.9041 
 236   0.0000       0.366194         9.9647 
 237   0.0000       0.366572         9.9749 
 238   0.0000       0.369051        10.0424 
 239   0.0000       0.370263        10.0754 
 240   0.0000       0.371900        10.1199 
 241   0.0000       0.373398        10.1607 
 242   0.0000       0.375451        10.2165 
 243   0.0000       0.382183        10.3997 
 244   0.0000       0.385814        10.4985 
 245   0.0000       0.387572        10.5464 
 246   0.0000       0.392571        10.6824 
 247   0.0000       0.397026        10.8036 
 248   0.0000       0.401665        10.9299 
 249   0.0000       0.403593        10.9823 
 250   0.0000       0.404854        11.0166 
 251   0.0000       0.409598        11.1457 
 252   0.0000       0.416189        11.3251 
 253   0.0000       0.423948        11.5362 
 254   0.0000       0.426602        11.6084 
 255   0.0000       0.428072        11.6484 
 256   0.0000       0.434450        11.8220 
 257   0.0000       0.437558        11.9066 
 258   0.0000       0.439222        11.9518 
 259   0.0000       0.452942        12.3252 
 260   0.0000       0.462563        12.5870 
 261   0.0000       0.463873        12.6226 
 262   0.0000       0.468431        12.7467 
 263   0.0000       0.471682        12.8351 
 264   0.0000       0.472773        12.8648 
 265   0.0000       0.477344        12.9892 
 266   0.0000       0.483097        13.1457 
 267   0.0000       0.486481        13.2378 
 268   0.0000       0.493518        13.4293 
 269   0.0000       0.494091        13.4449 
 270   0.0000       0.496919        13.5218 
 271   0.0000       0.500111        13.6087 
 272   0.0000       0.505064        13.7435 
 273   0.0000       0.507570        13.8117 
 274   0.0000       0.511709        13.9243 
 275   0.0000       0.516437        14.0530 
 276   0.0000       0.519021        14.1233 
 277   0.0000       0.525975        14.3125 
 278   0.0000       0.530011        14.4223 
 279   0.0000       0.532294        14.4845 
 280   0.0000       0.535278        14.5657 
 281   0.0000       0.537432        14.6243 
 282   0.0000       0.541316        14.7300 
 283   0.0000       0.549007        14.9392 
 284   0.0000       0.552452        15.0330 
 285   0.0000       0.553542        15.0627 
 286   0.0000       0.558046        15.1852 
 287   0.0000       0.558518        15.1980 
 288   0.0000       0.562519        15.3069 
 289   0.0000       0.564520        15.3614 
 290   0.0000       0.564927        15.3724 
 291   0.0000       0.567341        15.4381 
 292   0.0000       0.568473        15.4689 
 293   0.0000       0.571454        15.5500 
 294   0.0000       0.574357        15.6291 
 295   0.0000       0.574589        15.6354 
 296   0.0000       0.576038        15.6748 
 297   0.0000       0.580093        15.7851 
 298   0.0000       0.580290        15.7905 
 299   0.0000       0.582561        15.8523 
 300   0.0000       0.585275        15.9261 
 301   0.0000       0.586463        15.9585 
 302   0.0000       0.588563        16.0156 
 303   0.0000       0.589731        16.0474 
 304   0.0000       0.593168        16.1409 
 305   0.0000       0.594685        16.1822 
 306   0.0000       0.597872        16.2689 
 307   0.0000       0.601316        16.3626 
 308   0.0000       0.602860        16.4046 
 309   0.0000       0.604706        16.4549 
 310   0.0000       0.605915        16.4878 
 311   0.0000       0.608741        16.5647 
 312   0.0000       0.609215        16.5776 
 313   0.0000       0.610615        16.6157 
 314   0.0000       0.614707        16.7270 
 315   0.0000       0.615919        16.7600 
 316   0.0000       0.621161        16.9026 
 317   0.0000       0.624023        16.9805 
 318   0.0000       0.626699        17.0534 
 319   0.0000       0.630613        17.1599 
 320   0.0000       0.632001        17.1976 
 321   0.0000       0.632935        17.2230 
 322   0.0000       0.635895        17.3036 
 323   0.0000       0.638659        17.3788 
 324   0.0000       0.639878        17.4120 
 325   0.0000       0.642897        17.4941 
 326   0.0000       0.646142        17.5824 
 327   0.0000       0.648092        17.6355 
 328   0.0000       0.650288        17.6952 
 329   0.0000       0.652020        17.7424 
 330   0.0000       0.655239        17.8300 
 331   0.0000       0.657051        17.8793 
 332   0.0000       0.659518        17.9464 
 333   0.0000       0.661804        18.0086 
 334   0.0000       0.663455        18.0535 
 335   0.0000       0.665357        18.1053 
 336   0.0000       0.667566        18.1654 
 337   0.0000       0.671367        18.2688 
 338   0.0000       0.671900        18.2833 
 339   0.0000       0.679973        18.5030 
 340   0.0000       0.680526        18.5180 
 341   0.0000       0.683559        18.6006 
 342   0.0000       0.685832        18.6624 
 343   0.0000       0.687473        18.7071 
 344   0.0000       0.689128        18.7521 
 345   0.0000       0.691012        18.8034 
 346   0.0000       0.692824        18.8527 
 347   0.0000       0.698492        19.0069 
 348   0.0000       0.700562        19.0633 
 349   0.0000       0.702957        19.1284 
 350   0.0000       0.703905        19.1542 
 351   0.0000       0.711391        19.3579 
 352   0.0000       0.714616        19.4457 
 353   0.0000       0.714877        19.4528 
 354   0.0000       0.723083        19.6761 
 355   0.0000       0.728429        19.8216 
 356   0.0000       0.730862        19.8878 
 357   0.0000       0.731982        19.9182 
 358   0.0000       0.733257        19.9529 
 359   0.0000       0.736618        20.0444 
 360   0.0000       0.740890        20.1606 
 361   0.0000       0.743072        20.2200 
 362   0.0000       0.750179        20.4134 
 363   0.0000       0.751903        20.4603 
 364   0.0000       0.756248        20.5786 
 365   0.0000       0.759857        20.6768 
 366   0.0000       0.767224        20.8772 
 367   0.0000       0.770186        20.9578 
 368   0.0000       0.774470        21.0744 
 369   0.0000       0.777871        21.1670 
 370   0.0000       0.779339        21.2069 
 371   0.0000       0.787106        21.4182 
 372   0.0000       0.788494        21.4560 
 373   0.0000       0.791213        21.5300 
 374   0.0000       0.797852        21.7107 
 375   0.0000       0.800396        21.7799 
 376   0.0000       0.802434        21.8353 
 377   0.0000       0.805655        21.9230 
 378   0.0000       0.808514        22.0008 
 379   0.0000       0.809037        22.0150 
 380   0.0000       0.811765        22.0893 
 381   0.0000       0.813703        22.1420 
 382   0.0000       0.819732        22.3060 
 383   0.0000       0.820507        22.3271 
 384   0.0000       0.823366        22.4049 
 385   0.0000       0.827475        22.5167 
 386   0.0000       0.829559        22.5734 
 387   0.0000       0.832291        22.6478 
 388   0.0000       0.833859        22.6905 
 389   0.0000       0.836033        22.7496 
 390   0.0000       0.837031        22.7768 
 391   0.0000       0.841743        22.9050 
 392   0.0000       0.841933        22.9102 
 393   0.0000       0.848126        23.0787 
 394   0.0000       0.853023        23.2119 
 395   0.0000       0.855043        23.2669 
 396   0.0000       0.863909        23.5082 
 397   0.0000       0.870102        23.6767 
 398   0.0000       0.873335        23.7647 
 399   0.0000       0.877247        23.8711 
 400   0.0000       0.884128        24.0584 
 401   0.0000       0.887422        24.1480 
 402   0.0000       0.888661        24.1817 
 403   0.0000       0.891716        24.2648 
 404   0.0000       0.897777        24.4297 
 405   0.0000       0.898463        24.4484 
 406   0.0000       0.902054        24.5461 
 407   0.0000       0.905052        24.6277 
 408   0.0000       0.910585        24.7783 
 409   0.0000       0.915777        24.9195 
 410   0.0000       0.920036        25.0355 
 411   0.0000       0.923024        25.1168 
 412   0.0000       0.925651        25.1883 
 413   0.0000       0.936417        25.4812 
 414   0.0000       0.937684        25.5157 
 415   0.0000       0.944470        25.7003 
 416   0.0000       0.947249        25.7760 
 417   0.0000       0.951903        25.9026 
 418   0.0000       0.957641        26.0587 
 419   0.0000       0.961334        26.1592 
 420   0.0000       0.964464        26.2444 
 421   0.0000       0.967517        26.3275 
 422   0.0000       0.974209        26.5096 
 423   0.0000       0.979957        26.6660 
 424   0.0000       0.985386        26.8137 
 425   0.0000       0.987205        26.8632 
 426   0.0000       0.993727        27.0407 
 427   0.0000       0.998068        27.1588 
 428   0.0000       1.001674        27.2569 
 429   0.0000       1.005341        27.3567 
 430   0.0000       1.007586        27.4178 
 431   0.0000       1.010405        27.4945 
 432   0.0000       1.017814        27.6961 
 433   0.0000       1.022123        27.8134 
 434   0.0000       1.022868        27.8336 
 435   0.0000       1.029057        28.0021 
 436   0.0000       1.031596        28.0711 
 437   0.0000       1.034957        28.1626 
 438   0.0000       1.036819        28.2133 
 439   0.0000       1.043943        28.4071 
 440   0.0000       1.048309        28.5259 
 441   0.0000       1.052048        28.6277 
 442   0.0000       1.053869        28.6772 
 443   0.0000       1.061631        28.8884 
 444   0.0000       1.062809        28.9205 
 445   0.0000       1.069353        29.0986 
 446   0.0000       1.075574        29.2679 
 447   0.0000       1.084809        29.5192 
 448   0.0000       1.092107        29.7177 
 449   0.0000       1.094584        29.7851 
 450   0.0000       1.118174        30.4270 
 451   0.0000       1.128283        30.7022 
 452   0.0000       1.147865        31.2350 
 453   0.0000       1.156193        31.4616 
 454   0.0000       1.157983        31.5103 
 455   0.0000       1.165536        31.7159 
 456   0.0000       1.169932        31.8355 
 457   0.0000       1.179707        32.1015 
 458   0.0000       1.185080        32.2477 
 459   0.0000       1.199248        32.6332 
 460   0.0000       1.202661        32.7261 
 461   0.0000       1.206906        32.8416 
 462   0.0000       1.209307        32.9069 
 463   0.0000       1.213915        33.0323 
 464   0.0000       1.247875        33.9564 
 465   0.0000       1.254931        34.1484 
 466   0.0000       1.281458        34.8702 
 467   0.0000       1.286544        35.0086 
 468   0.0000       1.291786        35.1513 
 469   0.0000       1.296945        35.2917 
 470   0.0000       1.301868        35.4256 
 471   0.0000       1.304631        35.5008 
 472   0.0000       1.308172        35.5972 
 473   0.0000       1.311036        35.6751 
 474   0.0000       1.314949        35.7816 
 475   0.0000       1.316788        35.8316 
 476   0.0000       1.328321        36.1455 
 477   0.0000       1.332777        36.2667 
 478   0.0000       1.337828        36.4041 
 479   0.0000       1.345400        36.6102 
 480   0.0000       1.347158        36.6580 
 481   0.0000       1.351251        36.7694 
 482   0.0000       1.360064        37.0092 
 483   0.0000       1.367510        37.2118 
 484   0.0000       1.372334        37.3431 
 485   0.0000       1.373578        37.3770 
 486   0.0000       1.389894        37.8209 
 487   0.0000       1.402218        38.1563 
 488   0.0000       1.413732        38.4696 
 489   0.0000       1.429856        38.9084 
 490   0.0000       1.447284        39.3826 
 491   0.0000       1.452462        39.5235 
 492   0.0000       1.461954        39.7818 
 493   0.0000       1.473692        40.1012 
 494   0.0000       1.495287        40.6888 
 495   0.0000       1.507823        41.0300 
 496   0.0000       1.521181        41.3934 
 497   0.0000       1.524645        41.4877 
 498   0.0000       1.527791        41.5733 
 499   0.0000       1.540273        41.9130 
 500   0.0000       1.545336        42.0507 
 501   0.0000       1.558913        42.4202 
 502   0.0000       1.560806        42.4717 
 503   0.0000       1.567596        42.6564 
 504   0.0000       1.597749        43.4770 
 505   0.0000       1.599545        43.5258 
 506   0.0000       1.605841        43.6972 
 507   0.0000       1.606532        43.7160 
 508   0.0000       1.610664        43.8284 
 509   0.0000       1.617494        44.0143 
 510   0.0000       1.643779        44.7295 
 511   0.0000       1.646467        44.8026 
 512   0.0000       1.657407        45.1003 
 513   0.0000       1.659786        45.1651 
 514   0.0000       1.666423        45.3457 
 515   0.0000       1.668178        45.3934 
 516   0.0000       1.687408        45.9167 
 517   0.0000       1.689053        45.9615 
 518   0.0000       1.690355        45.9969 
 519   0.0000       1.690755        46.0078 
 520   0.0000       1.692176        46.0465 
 521   0.0000       1.693151        46.0730 
 522   0.0000       1.703366        46.3510 
 523   0.0000       1.705616        46.4122 
 524   0.0000       1.708188        46.4821 
 525   0.0000       1.708704        46.4962 
 526   0.0000       1.713023        46.6137 
 527   0.0000       1.715576        46.6832 
 528   0.0000       1.719998        46.8035 
 529   0.0000       1.722876        46.8818 
 530   0.0000       1.725615        46.9564 
 531   0.0000       1.727326        47.0029 
 532   0.0000       1.729015        47.0489 
 533   0.0000       1.733253        47.1642 
 534   0.0000       1.735474        47.2246 
 535   0.0000       1.738179        47.2983 
 536   0.0000       1.744717        47.4762 
 537   0.0000       1.748783        47.5868 
 538   0.0000       1.751799        47.6689 
 539   0.0000       1.755917        47.7809 
 540   0.0000       1.785665        48.5904 
 541   0.0000       1.794027        48.8179 
 542   0.0000       1.854049        50.4512 
 543   0.0000       1.858900        50.5832 
 544   0.0000       1.865681        50.7678 
 545   0.0000       1.871230        50.9187 
 546   0.0000       1.872933        50.9651 
 547   0.0000       1.876648        51.0662 
 548   0.0000       1.888415        51.3864 
 549   0.0000       1.889877        51.4262 
 550   0.0000       1.892433        51.4957 
 551   0.0000       1.898453        51.6595 
 552   0.0000       1.907517        51.9062 
 553   0.0000       1.911773        52.0220 
 554   0.0000       1.927181        52.4413 
 555   0.0000       1.931873        52.5689 
 556   0.0000       1.938497        52.7492 
 557   0.0000       1.941868        52.8409 
 558   0.0000       1.944829        52.9215 
 559   0.0000       1.953782        53.1651 
 560   0.0000       1.988913        54.1211 
 561   0.0000       1.993248        54.2390 
 562   0.0000       1.994819        54.2818 
 563   0.0000       1.996998        54.3411 
 564   0.0000       2.000298        54.4309 
 565   0.0000       2.001838        54.4728 
 566   0.0000       2.003708        54.5237 
 567   0.0000       2.005113        54.5619 
 568   0.0000       2.011030        54.7229 
 569   0.0000       2.018718        54.9321 
 570   0.0000       2.021344        55.0036 
 571   0.0000       2.024686        55.0945 
 572   0.0000       2.026802        55.1521 
 573   0.0000       2.030280        55.2467 
 574   0.0000       2.032590        55.3096 
 575   0.0000       2.034531        55.3624 
 576   0.0000       2.035971        55.4016 
 577   0.0000       2.038846        55.4798 
 578   0.0000       2.040275        55.5187 
 579   0.0000       2.041321        55.5472 
 580   0.0000       2.045213        55.6531 
 581   0.0000       2.049842        55.7790 
 582   0.0000       2.053619        55.8818 
 583   0.0000       2.058837        56.0238 
 584   0.0000       2.063512        56.1510 
 585   0.0000       2.065858        56.2149 
 586   0.0000       2.068999        56.3003 
 587   0.0000       2.071463        56.3674 
 588   0.0000       2.074840        56.4593 
 589   0.0000       2.075064        56.4654 
 590   0.0000       2.078499        56.5588 
 591   0.0000       2.079179        56.5773 
 592   0.0000       2.080630        56.6168 
 593   0.0000       2.084242        56.7151 
 594   0.0000       2.088867        56.8410 
 595   0.0000       2.091296        56.9070 
 596   0.0000       2.092083        56.9285 
 597   0.0000       2.094610        56.9972 
 598   0.0000       2.096215        57.0409 
 599   0.0000       2.099345        57.1261 
 600   0.0000       2.101676        57.1895 
 601   0.0000       2.102892        57.2226 
 602   0.0000       2.107798        57.3561 
 603   0.0000       2.111225        57.4494 
 604   0.0000       2.116796        57.6009 
 605   0.0000       2.124882        57.8210 
 606   0.0000       2.125963        57.8504 
 607   0.0000       2.129730        57.9529 
 608   0.0000       2.138560        58.1932 
 609   0.0000       2.138923        58.2031 
 610   0.0000       2.146446        58.4078 
 611   0.0000       2.148246        58.4567 
 612   0.0000       2.149102        58.4800 
 613   0.0000       2.156590        58.6838 
 614   0.0000       2.159214        58.7552 
 615   0.0000       2.161032        58.8047 
 616   0.0000       2.165005        58.9128 
 617   0.0000       2.166002        58.9399 
 618   0.0000       2.173757        59.1509 
 619   0.0000       2.174687        59.1762 
 620   0.0000       2.176683        59.2305 
 621   0.0000       2.180603        59.3372 
 622   0.0000       2.181749        59.3684 
 623   0.0000       2.185475        59.4698 
 624   0.0000       2.187982        59.5380 
 625   0.0000       2.190142        59.5968 
 626   0.0000       2.195968        59.7553 
 627   0.0000       2.199272        59.8452 
 628   0.0000       2.202976        59.9460 
 629   0.0000       2.203384        59.9571 
 630   0.0000       2.209836        60.1327 
 631   0.0000       2.212322        60.2003 
 632   0.0000       2.216870        60.3241 
 633   0.0000       2.220069        60.4112 
 634   0.0000       2.224105        60.5210 
 635   0.0000       2.228239        60.6335 
 636   0.0000       2.234323        60.7990 
 637   0.0000       2.238996        60.9262 
 638   0.0000       2.239813        60.9484 
 639   0.0000       2.253265        61.3145 
 640   0.0000       2.255002        61.3617 
 641   0.0000       2.258769        61.4642 
 642   0.0000       2.260973        61.5242 
 643   0.0000       2.264677        61.6250 
 644   0.0000       2.267750        61.7086 
 645   0.0000       2.271150        61.8011 
 646   0.0000       2.275122        61.9092 
 647   0.0000       2.277330        61.9693 
 648   0.0000       2.281351        62.0787 
 649   0.0000       2.282075        62.0984 
 650   0.0000       2.285768        62.1989 
 651   0.0000       2.288468        62.2724 
 652   0.0000       2.291588        62.3573 
 653   0.0000       2.293509        62.4095 
 654   0.0000       2.298836        62.5545 
 655   0.0000       2.302225        62.6467 
 656   0.0000       2.309032        62.8320 
 657   0.0000       2.310665        62.8764 
 658   0.0000       2.313547        62.9548 
 659   0.0000       2.316003        63.0216 
 660   0.0000       2.316647        63.0392 
 661   0.0000       2.319652        63.1209 
 662   0.0000       2.323793        63.2336 
 663   0.0000       2.324867        63.2628 
 664   0.0000       2.326225        63.2998 
 665   0.0000       2.334773        63.5324 
 666   0.0000       2.337342        63.6023 
 667   0.0000       2.337602        63.6094 
 668   0.0000       2.339467        63.6601 
 669   0.0000       2.343175        63.7610 
 670   0.0000       2.346219        63.8439 
 671   0.0000       2.349727        63.9393 
 672   0.0000       2.352364        64.0111 
 673   0.0000       2.353795        64.0500 
 674   0.0000       2.355871        64.1065 
 675   0.0000       2.358200        64.1699 
 676   0.0000       2.359191        64.1968 
 677   0.0000       2.362281        64.2809 
 678   0.0000       2.363397        64.3113 
 679   0.0000       2.364289        64.3356 
 680   0.0000       2.366230        64.3884 
 681   0.0000       2.366432        64.3939 
 682   0.0000       2.367118        64.4126 
 683   0.0000       2.368391        64.4472 
 684   0.0000       2.368952        64.4625 
 685   0.0000       2.369753        64.4842 
 686   0.0000       2.370543        64.5058 
 687   0.0000       2.372858        64.5687 
 688   0.0000       2.374452        64.6121 
 689   0.0000       2.375877        64.6509 
 690   0.0000       2.378879        64.7326 
 691   0.0000       2.379688        64.7546 
 692   0.0000       2.381035        64.7913 
 693   0.0000       2.381950        64.8161 
 694   0.0000       2.383090        64.8472 
 695   0.0000       2.385034        64.9001 
 696   0.0000       2.385400        64.9100 
 697   0.0000       2.387744        64.9738 
 698   0.0000       2.389117        65.0112 
 699   0.0000       2.390790        65.0567 
 700   0.0000       2.391570        65.0779 
 701   0.0000       2.393986        65.1437 
 702   0.0000       2.395049        65.1726 
 703   0.0000       2.396915        65.2234 
 704   0.0000       2.398153        65.2571 
 705   0.0000       2.400388        65.3179 
 706   0.0000       2.403373        65.3991 
 707   0.0000       2.407220        65.5038 
 708   0.0000       2.409720        65.5718 
 709   0.0000       2.412086        65.6362 
 710   0.0000       2.420859        65.8749 
 711   0.0000       2.424365        65.9703 
 712   0.0000       2.427796        66.0637 
 713   0.0000       2.430663        66.1417 
 714   0.0000       2.433484        66.2185 
 715   0.0000       2.434489        66.2458 
 716   0.0000       2.437266        66.3214 
 717   0.0000       2.440166        66.4003 
 718   0.0000       2.443980        66.5041 
 719   0.0000       2.444888        66.5288 
 720   0.0000       2.446753        66.5795 
 721   0.0000       2.449630        66.6578 
 722   0.0000       2.452851        66.7455 
 723   0.0000       2.454798        66.7985 
 724   0.0000       2.455878        66.8278 
 725   0.0000       2.460749        66.9604 
 726   0.0000       2.461508        66.9810 
 727   0.0000       2.467449        67.1427 
 728   0.0000       2.469356        67.1946 
 729   0.0000       2.474635        67.3382 
 730   0.0000       2.475486        67.3614 
 731   0.0000       2.481299        67.5196 
 732   0.0000       2.485684        67.6389 
 733   0.0000       2.490483        67.7695 
 734   0.0000       2.492501        67.8244 
 735   0.0000       2.493997        67.8651 
 736   0.0000       2.496488        67.9329 
 737   0.0000       2.498256        67.9810 
 738   0.0000       2.500529        68.0428 
 739   0.0000       2.501880        68.0796 
 740   0.0000       2.506293        68.1997 
 741   0.0000       2.506809        68.2137 
 742   0.0000       2.510094        68.3031 
 743   0.0000       2.511497        68.3413 
 744   0.0000       2.513033        68.3831 
 745   0.0000       2.515828        68.4592 
 746   0.0000       2.519020        68.5460 
 747   0.0000       2.523406        68.6654 
 748   0.0000       2.527410        68.7743 
 749   0.0000       2.532932        68.9246 
 750   0.0000       2.533470        68.9392 
 751   0.0000       2.540018        69.1174 
[...]
      f+2     :     0.006775
      f-2     :     0.005583
      f+3     :     0.003326
      f-3     :     0.002315
 48 H s       :     0.821760  s :     0.821760
      pz      :     0.012271  p :     0.061008
      px      :     0.021549
      py      :     0.027188
 49 N s       :     3.008819  s :     3.008819
      pz      :     1.241535  p :     3.765823
      px      :     1.264344
      py      :     1.259945
      dz2     :     0.031276  d :     0.154085
      dxz     :     0.041320
      dyz     :     0.034532
      dx2y2   :     0.008631
      dxy     :     0.038326
      f0      :     0.002212  f :     0.009609
      f+1     :     0.001245
      f-1     :     0.001237
      f+2     :     0.001519
      f-2     :     0.001521
      f+3     :     0.001144
      f-3     :     0.000731
 50 H s       :     0.720173  s :     0.720173
      pz      :     0.018923  p :     0.135658
      px      :     0.046577
      py      :     0.070159
 51 H s       :     0.821122  s :     0.821122
      pz      :     0.021544  p :     0.061119
      px      :     0.024265
      py      :     0.015310
 52 H s       :     0.723179  s :     0.723179
      pz      :     0.037884  p :     0.129724
      px      :     0.045380
      py      :     0.046459
 53 H s       :     0.821378  s :     0.821378
      pz      :     0.023347  p :     0.061061
      px      :     0.014289
      py      :     0.023424
 54 H s       :     0.723200  s :     0.723200
      pz      :     0.040322  p :     0.127094
      px      :     0.042936
      py      :     0.043836
 55 C s       :     2.850882  s :     2.850882
      pz      :     1.046368  p :     3.092538
      px      :     0.985243
      py      :     1.060927
      dz2     :     0.030322  d :     0.317873
      dxz     :     0.083644
      dyz     :     0.079075
      dx2y2   :     0.043872
      dxy     :     0.080960
      f0      :     0.004784  f :     0.038273
      f+1     :     0.007344
      f-1     :     0.003116
      f+2     :     0.004464
      f-2     :     0.006453
      f+3     :     0.007145
      f-3     :     0.004967
 56 H s       :     0.821593  s :     0.821593
      pz      :     0.022223  p :     0.061108
      px      :     0.020755
      py      :     0.018129
 57 N s       :     3.008993  s :     3.008993
      pz      :     1.262392  p :     3.766288
      px      :     1.246644
      py      :     1.257251
      dz2     :     0.014504  d :     0.154109
      dxz     :     0.038434
      dyz     :     0.040520
      dx2y2   :     0.021641
      dxy     :     0.039010
      f0      :     0.001289  f :     0.009598
      f+1     :     0.001654
      f-1     :     0.000906
      f+2     :     0.001071
      f-2     :     0.001733
      f+3     :     0.001854
      f-3     :     0.001091
 58 H s       :     0.719182  s :     0.719182
      pz      :     0.043258  p :     0.141260
      px      :     0.051079
      py      :     0.046923
 59 H s       :     0.820384  s :     0.820384
      pz      :     0.018421  p :     0.061086
      px      :     0.017924
      py      :     0.024740
 60 H s       :     0.720361  s :     0.720361
      pz      :     0.053329  p :     0.136700
      px      :     0.022436
      py      :     0.060936


                      *****************************
                      * MAYER POPULATION ANALYSIS *
                      *****************************

  NA   - Mulliken gross atomic population
  ZA   - Total nuclear charge
  QA   - Mulliken gross atomic charge
  VA   - Mayer's total valence
  BVA  - Mayer's bonded valence
  FA   - Mayer's free valence

  ATOM       NA         ZA         QA         VA         BVA        FA
  0 C      6.2516     6.0000    -0.2516     3.8924     3.8924     0.0000
  1 N      7.2893     7.0000    -0.2893     3.2277     3.2277    -0.0000
  2 H      0.8637     1.0000     0.1363     0.9650     0.9650    -0.0000
  3 H      0.8582     1.0000     0.1418     0.9645     0.9645    -0.0000
  4 H      0.8601     1.0000     0.1399     0.9633     0.9633     0.0000
  5 H      0.7277     1.0000     0.2723     1.0102     1.0102     0.0000
  6 H      0.7313     1.0000     0.2687     1.0025     1.0025     0.0000
  7 H      0.7184     1.0000     0.2816     0.9946     0.9946    -0.0000
  8 Pb    21.0055    22.0000     0.9945     1.7282     1.7282    -0.0000
  9 Cl    17.6087    17.0000    -0.6087     0.6952     0.6952    -0.0000
 10 Cl    17.7181    17.0000    -0.7181     0.5084     0.5084     0.0000
 11 Cl    17.6550    17.0000    -0.6550     0.6193     0.6193     0.0000
 12 Cl    17.7023    17.0000    -0.7023     0.5428     0.5428     0.0000
 13 Cl    17.6676    17.0000    -0.6676     0.6042     0.6042     0.0000
 14 Cl    17.5947    17.0000    -0.5947     0.7087     0.7087     0.0000
 15 N      7.2739     7.0000    -0.2739     3.3707     3.3707     0.0000
 16 C      6.2408     6.0000    -0.2408     3.8486     3.8486     0.0000
 17 H      0.7251     1.0000     0.2749     1.0056     1.0056    -0.0000
 18 H      0.7020     1.0000     0.2980     0.9634     0.9634     0.0000
 19 H      0.8520     1.0000     0.1480     0.9799     0.9799     0.0000
 20 H      0.8625     1.0000     0.1375     1.0000     1.0000     0.0000
 21 H      0.8781     1.0000     0.1219     0.9720     0.9720     0.0000
 22 H      0.7058     1.0000     0.2942     0.9456     0.9456     0.0000
 23 Cl    17.6644    17.0000    -0.6644     0.6087     0.6087     0.0000
 24 Cl    17.7025    17.0000    -0.7025     0.5426     0.5426     0.0000
 25 Pb    21.0063    22.0000     0.9937     1.7308     1.7308    -0.0000
 26 N      7.2788     7.0000    -0.2788     3.3701     3.3701    -0.0000
 27 C      6.2352     6.0000    -0.2352     3.8361     3.8361    -0.0000
 28 H      0.7060     1.0000     0.2940     0.9680     0.9680    -0.0000
 29 H      0.7032     1.0000     0.2968     0.9417     0.9417    -0.0000
 30 H      0.8796     1.0000     0.1204     0.9694     0.9694    -0.0000
 31 H      0.8497     1.0000     0.1503     0.9811     0.9811    -0.0000
 32 H      0.8618     1.0000     0.1382     1.0046     1.0046    -0.0000
 33 H      0.7248     1.0000     0.2752     1.0030     1.0030    -0.0000
 34 Cl    17.6067    17.0000    -0.6067     0.6990     0.6990    -0.0000
 35 H      0.8636     1.0000     0.1364     0.9649     0.9649    -0.0000
 36 H      0.7324     1.0000     0.2676     1.0042     1.0042    -0.0000
 37 H      0.8595     1.0000     0.1405     0.9633     0.9633    -0.0000
 38 C      6.2505     6.0000    -0.2505     3.8899     3.8899    -0.0000
 39 N      7.2907     7.0000    -0.2907     3.2275     3.2275    -0.0000
 40 Cl    17.6549    17.0000    -0.6549     0.6192     0.6192    -0.0000
 41 H      0.7248     1.0000     0.2752     1.0078     1.0078    -0.0000
 42 H      0.7185     1.0000     0.2815     0.9926     0.9926    -0.0000
 43 H      0.8581     1.0000     0.1419     0.9643     0.9643     0.0000
 44 Cl    17.7111    17.0000    -0.7111     0.5208     0.5208     0.0000
 45 H      0.8652     1.0000     0.1348     0.9707     0.9707    -0.0000
 46 H      0.7296     1.0000     0.2704     1.0166     1.0166     0.0000
 47 C      6.2445     6.0000    -0.2445     3.8950     3.8950    -0.0000
 48 H      0.8636     1.0000     0.1364     0.9646     0.9646    -0.0000
 49 N      7.2838     7.0000    -0.2838     3.2046     3.2046     0.0000
 50 H      0.7395     1.0000     0.2605     1.0259     1.0259     0.0000
 51 H      0.8624     1.0000     0.1376     0.9649     0.9649     0.0000
 52 H      0.7245     1.0000     0.2755     0.9911     0.9911     0.0000
 53 H      0.8628     1.0000     0.1372     0.9648     0.9648     0.0000
 54 H      0.7249     1.0000     0.2751     0.9875     0.9875    -0.0000
 55 C      6.2456     6.0000    -0.2456     3.8921     3.8921    -0.0000
 56 H      0.8625     1.0000     0.1375     0.9642     0.9642     0.0000
 57 N      7.2870     7.0000    -0.2870     3.2014     3.2014     0.0000
 58 H      0.7277     1.0000     0.2723     1.0189     1.0189     0.0000
 59 H      0.8639     1.0000     0.1361     0.9705     0.9705     0.0000
 60 H      0.7373     1.0000     0.2627     1.0222     1.0222     0.0000

  Mayer bond orders larger than 0.1
B(  0-C ,  1-N ) :   0.9349 B(  0-C ,  2-H ) :   0.9749 B(  0-C ,  3-H ) :   0.9747 
B(  0-C ,  4-H ) :   0.9744 B(  1-N ,  5-H ) :   0.7854 B(  1-N ,  6-H ) :   0.8113 
B(  1-N ,  7-H ) :   0.7999 B(  5-H , 11-Cl) :   0.2270 B(  6-H ,  9-Cl) :   0.1886 
B(  7-H , 10-Cl) :   0.1883 B(  8-Pb,  9-Cl) :   0.4762 B(  8-Pb, 10-Cl) :   0.1742 
B(  8-Pb, 11-Cl) :   0.3593 B(  8-Pb, 12-Cl) :   0.1437 B(  8-Pb, 13-Cl) :   0.2604 
B(  8-Pb, 14-Cl) :   0.3056 B( 10-Cl, 52-H ) :   0.1697 B( 12-Cl, 17-H ) :   0.2034 
B( 12-Cl, 46-H ) :   0.2347 B( 13-Cl, 18-H ) :   0.1329 B( 13-Cl, 50-H ) :   0.2358 
B( 14-Cl, 25-Pb) :   0.2878 B( 15-N , 16-C ) :   0.9306 B( 15-N , 17-H ) :   0.8001 
B( 15-N , 18-H ) :   0.8254 B( 15-N , 22-H ) :   0.8685 B( 16-C , 19-H ) :   0.9699 
B( 16-C , 20-H ) :   0.9668 B( 16-C , 21-H ) :   0.9707 B( 23-Cl, 25-Pb) :   0.2687 
B( 23-Cl, 28-H ) :   0.1353 B( 23-Cl, 60-H ) :   0.2303 B( 24-Cl, 25-Pb) :   0.1364 
B( 24-Cl, 33-H ) :   0.1990 B( 24-Cl, 58-H ) :   0.2469 B( 25-Pb, 34-Cl) :   0.4820 
B( 25-Pb, 40-Cl) :   0.3433 B( 25-Pb, 44-Cl) :   0.2024 B( 26-N , 27-C ) :   0.9265 
B( 26-N , 28-H ) :   0.8268 B( 26-N , 29-H ) :   0.8661 B( 26-N , 33-H ) :   0.8030 
B( 27-C , 30-H ) :   0.9705 B( 27-C , 31-H ) :   0.9694 B( 27-C , 32-H ) :   0.9655 
B( 34-Cl, 36-H ) :   0.1902 B( 35-H , 38-C ) :   0.9750 B( 36-H , 39-N ) :   0.8116 
B( 37-H , 38-C ) :   0.9742 B( 38-C , 39-N ) :   0.9328 B( 38-C , 43-H ) :   0.9747 
B( 39-N , 41-H ) :   0.7818 B( 39-N , 42-H ) :   0.8046 B( 40-Cl, 41-H ) :   0.2276 
B( 42-H , 44-Cl) :   0.1818 B( 44-Cl, 54-H ) :   0.1585 B( 45-H , 47-C ) :   0.9750 
B( 46-H , 49-N ) :   0.7801 B( 47-C , 48-H ) :   0.9757 B( 47-C , 49-N ) :   0.9395 
B( 47-C , 51-H ) :   0.9748 B( 49-N , 50-H ) :   0.7890 B( 49-N , 52-H ) :   0.8162 
B( 53-H , 55-C ) :   0.9758 B( 54-H , 57-N ) :   0.8238 B( 55-C , 56-H ) :   0.9747 
B( 55-C , 57-N ) :   0.9369 B( 55-C , 59-H ) :   0.9749 B( 57-N , 58-H ) :   0.7706 
B( 57-N , 60-H ) :   0.7895 

-------
TIMINGS
-------

Total SCF time: 0 days 0 hours 15 min 18 sec 

Total time                  ....     918.967 sec
Sum of individual times     ....     538.694 sec  ( 58.6%)

Fock matrix formation       ....     481.380 sec  ( 52.4%)
  Coulomb formation         ....     443.118 sec  ( 92.1% of F)
  Split-RI-J                ....      34.758 sec  (  7.2% of F)
  Chain of spheres X        ....     770.780 sec  (160.1% of F)
  XC integration            ....      38.206 sec  (  7.9% of F)
    Basis function eval.    ....      17.924 sec  ( 46.9% of XC)
    Density eval.           ....       8.085 sec  ( 21.2% of XC)
    XC-Functional eval.     ....       1.048 sec  (  2.7% of XC)
    XC-Potential eval.      ....      10.651 sec  ( 27.9% of XC)
Diagonalization             ....       0.859 sec  (  0.1%)
Density matrix formation    ....       0.324 sec  (  0.0%)
Population analysis         ....       4.518 sec  (  0.5%)
Initial guess               ....       0.708 sec  (  0.1%)
Orbital Transformation      ....       0.000 sec  (  0.0%)
Orbital Orthonormalization  ....       0.605 sec  (  0.1%)
DIIS solution               ....       0.249 sec  (  0.0%)
SOSCF solution              ....       0.615 sec  (  0.1%)
Grid generation             ....      50.043 sec  (  5.4%)

------------------------------------------------------------------------------
                              ORCA MP2 CALCULATION
------------------------------------------------------------------------------


-------------
RI-MP2 ENERGY
-------------
Dimension of the basis                    ... 1095
Memory devoted to MP2                     ... 4000 MB   
Data format for buffers                   ... DOUBLE
Compression type for matrix containers    ... UNCOMPRESSED
Overall scaling of the MP2 energy         ...   2.700e-01 Eh
Calculating two index integrals           ... done (    0.142 sec)
Cholesky decomposition of V**-1           ... done (    0.723 sec)

-----------------
RI-TRANSFORMATION (AUX index driven)
-----------------

Dimension of the orbital-basis         ... 1095
Dimension of the aux-basis             ... 1897
Transformation of internal/external MOs...    0- 172 to  173-1094
Number Format for Storage              ... Double (8 Byte)
Integral mode                          ... Direct

First Phase: integral generation and transformation of MO indices
  Aux angular momentum 0               ... done (   24.726 sec)
  Aux angular momentum 1               ... done (   24.332 sec)
  Aux angular momentum 2               ... done (   29.599 sec)
  Aux angular momentum 3               ... done (   12.287 sec)
  Aux angular momentum 4               ... done (   12.240 sec)
Closing buffer VIA ( 2.25 GB; CompressionRatio= 1.00)
  Phase 1 completed in   103.332 sec
Second Phase: sorting and transformation of aux index

IA-Transformation
Memory available                       ... 3892 MB 
Max. # MO pairs treated in a batch     ... 173    
# of internal orbitals                 ... 173
# batches for internal orbitals        ... 1
Closing buffer IAV ( 2.25 GB; CompressionRatio= 1.00)
(ia|v) transformation done in    40.850 sec

  Phase 2 completed in    52.380 sec
RI-Integral transformation completed in   155.714 sec
Opening buffers                              ... done

Starting loop over batches of integrals:

Operator 0  - window                       ... (  0-172)x(173-1094)
Operator 0  - Memory available             ...  4000 MB
Operator 0  - Memory needed per MO         ...  13.3 MB
Operator 0  - Number of orbitals per batch ... 173
Operator 0  - Number of batches            ... 1

OPERATOR  0   PASS   0:  MOs     0 ...  172
  Reading integrals       ... ok
  Internal MO   2
  Internal MO   5
  Internal MO   8
  Internal MO  11
  Internal MO  14
  Internal MO  17
  Internal MO  20
  Internal MO  23
  Internal MO  26
  Internal MO  29
  Internal MO  32
  Internal MO  35
  Internal MO  38
  Internal MO  41
  Internal MO  44
  Internal MO  47
  Internal MO  50
  Internal MO  53
  Internal MO  56
  Internal MO  59
  Internal MO  62
  Internal MO  65
  Internal MO  68
  Internal MO  71
  Internal MO  74
  Internal MO  77
  Internal MO  80
  Internal MO  83
  Internal MO  86
  Internal MO  89
  Internal MO  92
  Internal MO  95
  Internal MO  98
  Internal MO 101
  Internal MO 104
  Internal MO 107
  Internal MO 110
  Internal MO 113
  Internal MO 116
  Internal MO 119
  Internal MO 122
  Internal MO 125
  Internal MO 128
  Internal MO 131
  Internal MO 134
  Internal MO 137
  Internal MO 140
  Internal MO 143
  Internal MO 146
  Internal MO 149
  Internal MO 152
  Internal MO 155
  Internal MO 158
  Internal MO 161
  Internal MO 164
  Internal MO 167
  Internal MO 170
Time spent in pair loops =  1742.562 sec

-----------------------------------------------
 RI-MP2 CORRELATION ENERGY:     -2.218698573 Eh
-----------------------------------------------


-------
TIMINGS
-------

Total time                : 1899.187 sec
Integral trafo            :  155.728 sec (  8.2%)
I/O of integrals          :    1.492 sec (  0.1%)
K(i,j) Operators          : 1584.731 sec ( 83.4%)
T(i,j) pair energies      :  131.499 sec (  6.9%)
V-calculation             :    0.142 sec (  0.0%)
V**(-1/2)                 :    0.723 sec (  0.0%)
Gamma(ia|P)               :    0.000 sec (  0.0%)
Gamma-Trafo               :    0.000 sec (  0.0%)
D(virtual)                :    0.000 sec (  0.0%)
D(internal)               :    0.000 sec (  0.0%)
W(virtual)                :    0.000 sec (  0.0%)
W(internal)               :    0.000 sec (  0.0%)
L(virtual)                :    0.000 sec (  0.0%)
L(internal)               :    0.000 sec (  0.0%)
G(D)                      :    0.000 sec (  0.0%)
G(Z)                      :    0.000 sec (  0.0%)
Z-Vector Solution         :    0.000 sec (  0.0%)
Z-Vector Solution         :    0.000 sec (  0.0%)
3-Index Derivative 
+ Separable RIJ part      :    0.000 sec (  0.0%)
2-Index Derivative 
+ Separable RIJ part      :    0.000 sec (  0.0%)
Separable Gradient (COSX) :    0.000 sec (  0.0%)


---------------------------------------
MP2 TOTAL ENERGY:    -6025.869483954 Eh
---------------------------------------

Entering the calculation of the dispersion correction...

Checking the input atom types...

Done


-------------------------------------------------------------------------------
                          DFT DISPERSION CORRECTION                            
                                                                               
                                DFTD3 V2.1  Rev 6                               
                          USING Becke-Johnson damping                          
-------------------------------------------------------------------------------
The B2PLYP functional is recognized
Active option DFTDOPT                   ...         4   

molecular C6(AA) [au] = 68452.141815 


            DFT-D V3
 parameters
 s6 scaling factor         :     0.6400 
 a1 scaling factor         :     0.3065 
 s8 scaling factor         :     0.9147 
 a2 scaling factor         :     5.0570 
 ad hoc parameters k1-k3   :    16.0000     1.3333    -4.0000 

 Edisp/kcal,au: -50.442284160168  -0.080384887981 
 E6   /kcal   : -25.100913385 
 E8   /kcal   : -25.341370775 
 % E8         :  50.238349030 

-------------------------   ----------------
Dispersion correction           -0.080384888
-------------------------   ----------------


-------------------------   --------------------
FINAL SINGLE POINT ENERGY     -6025.949868841617
-------------------------   --------------------


                            ***************************************
                            *     ORCA property calculations      *
                            ***************************************


  WARNING: The energy has been calculated at the MP2 level but the densities
           used in the property calculations are still SCF densities
           MP2 response densities have not been calculated 
           use %mp2 Density relaxed end
           or  %mp2 Density unrelaxed end

                                    ---------------------
                                    Active property flags
                                    ---------------------
   (+) Dipole Moment


------------------------------------------------------------------------------
                       ORCA ELECTRIC PROPERTIES CALCULATION
------------------------------------------------------------------------------

Dipole Moment Calculation                       ... on
Quadrupole Moment Calculation                   ... off
Polarizability Calculation                      ... off
GBWName                                         ... Pb2Cl11_6NH3CH3_-1_mp2_sp2_0.orca.gbw
Electron density file                           ... Pb2Cl11_6NH3CH3_-1_mp2_sp2_0.orca.scfp.tmp

-------------
DIPOLE MOMENT
-------------
                                X             Y             Z
Electronic contribution:    -30.83166       3.62685      33.45772
Nuclear contribution   :     32.13497      -4.03070     -34.75831
                        -----------------------------------------
Total Dipole Moment    :      1.30331      -0.40384      -1.30059
                        -----------------------------------------
Magnitude (a.u.)       :      1.88501
Magnitude (Debye)      :      4.79131


Timings for individual modules:

Sum of individual times         ...     2826.352 sec (=  47.106 min)
GTO integral calculation        ...        5.939 sec (=   0.099 min)   0.2 %
SCF iterations                  ...      920.403 sec (=  15.340 min)  32.6 %
MP2 module                      ...     1900.010 sec (=  31.667 min)  67.2 %
                             ****ORCA TERMINATED NORMALLY****
TOTAL RUN TIME: 0 days 0 hours 47 minutes 7 seconds 764 msec
