
                                 *****************
                                 * O   R   C   A *
                                 *****************

           --- An Ab Initio, DFT and Semiempirical electronic structure package ---

                  #######################################################
                  #                        -***-                        #
                  #  Department of molecular theory and spectroscopy    #
                  #              Directorship: Frank Neese              #
                  # Max Planck Institute for Chemical Energy Conversion #
                  #                  D-45470 Muelheim/Ruhr              #
                  #                       Germany                       #
                  #                                                     #
                  #                  All rights reserved                #
                  #                        -***-                        #
                  #######################################################


                         Program Version 3.0.3 - RELEASE   -


 With contributions from (in alphabetic order):
   Ute Becker             : Parallelization
   Dmytro Bykov           : SCF Hessian
   Dmitry Ganyushin       : Spin-Orbit,Spin-Spin,Magnetic field MRCI
   Andreas Hansen         : Spin unrestricted coupled pair/coupled cluster methods
   Dimitrios Liakos       : Extrapolation schemes; parallel MDCI
   Robert Izsak           : Overlap fitted RIJCOSX, COSX-SCS-MP3
   Christian Kollmar      : KDIIS, OOCD, Brueckner-CCSD(T), CCSD density
   Simone Kossmann        : Meta GGA functionals, TD-DFT gradient, OOMP2, MP2 Hessian
   Taras Petrenko         : DFT Hessian,TD-DFT gradient, ASA and ECA modules, normal mode analysis, Resonance Raman, ABS, FL, XAS/XES, NRVS
   Christoph Reimann      : Effective Core Potentials
   Michael Roemelt        : Restricted open shell CIS
   Christoph Riplinger    : Improved optimizer, TS searches, QM/MM, DLPNO-CCSD
   Barbara Sandhoefer     : DKH picture change effects
   Igor Schapiro          : Molecular dynamics
   Kantharuban Sivalingam : CASSCF convergence, NEVPT2
   Boris Wezisla          : Elementary symmetry handling
   Frank Wennmohs         : Technical directorship


 We gratefully acknowledge several colleagues who have allowed us to
 interface, adapt or use parts of their codes:
   Stefan Grimme, W. Hujo, H. Kruse, T. Risthaus : VdW corrections, initial TS optimization,
                                                   DFT functionals, gCP
   Ed Valeev                                     : LibInt (2-el integral package), F12 methods
   Garnet Chan, S. Sharma, R. Olivares           : DMRG
   Ulf Ekstrom                                   : XCFun DFT Library
   Mihaly Kallay                                 : mrcc  (arbitrary order and MRCC methods)
   Andreas Klamt, Michael Diedenhofen            : otool_cosmo (COSMO solvation model)
   Frank Weinhold                                : gennbo (NPA and NBO analysis)
   Christopher J. Cramer and Donald G. Truhlar   : smd solvation model


 Your calculation uses the libint2 library for the computation of 2-el integrals
 For citations please refer to: http://libint.valeyev.net

 This ORCA versions uses:
   CBLAS   interface :  Fast vector & matrix operations
   LAPACKE interface :  Fast linear algebra routines
   SCALAPACK package :  Parallel linear algebra routines


Your calculation utilizes the basis: Ahlrichs-TZV
Cite in your paper:
H - Kr: A. Schaefer, H. Horn and R. Ahlrichs, J. Chem. Phys. 97, 2571 (1992).

The def2-TZV basis will be loaded
Cite in your paper:
 	F. Weigend, R. Ahlrichs, Phys. Chem. Chem. Phys. 2005, 7, 3297.

Your calculation utilizes the atom-pairwise dispersion correction
with the Becke-Johnson damping scheme (D3BJ)
Cite in your paper:
S.Grimme, S.Ehrlich, L.Goerigk, J Comput Chem, (2011), 32, 1456–1465 
S.Grimme, J.Antony, S.Ehrlich and H.Krieg, J.Chem.Phys., 132, (2010), 154104 
   

================================================================================
                                        WARNINGS
                       Please study these warnings very carefully!
================================================================================

WARNING: The RI method has been chosen with no auxiliary basis (AUX or GTOAUX in BASIS block)
        Standard TZV/J expansion basis used (GTOAUX=TZV_J)

Now building the actual basis set
cite the ECPs for Pb [SD(60,MDF)] as follows:
  B. Metz, H. Stoll, M. Dolg, J. Chem. Phys. 113, 2563 (2000).

ECP parameters for Pb [SD(60,MDF)] have been obtained from:
  pseudopotential library of the Stuttgart/Cologne group
  http://www.theochem.uni-stuttgart.de/pseudopotentials/

cite the ECP basis sets for Pb [DEF2-TZVP] as follows:
  F. Weigend, R. Ahlrichs; Phys. Chem. Chem. Phys. 7, 3297(2005).

ECP basis sets for Pb [DEF2-TZVP] have been obtained from:
  Turbomole basis set library
  ftp://ftp.chemie.uni-karlsruhe.de/pub/basen/



INFO   : the flag for use of LIBINT has been found!

================================================================================
                                       INPUT FILE
================================================================================
NAME = PbMACl3_mp2_md_23.orca
|  1> ! RIJCOSX RI-B2PLYP D3BJ def2-TZVP ECP{def2-TZVP} TIGHTSCF Grid5 FinalGrid6 SlowConv MORead
|  2> %method
|  3>  RunTyp Gradient
|  4>  end
|  5> %maxcore 1000
|  6> %moinp "previous.gbw"
|  7> *xyz 0 1
|  8> C -0.250268 -0.167812 -2.280710 
|  9> N 0.452847 -1.412560 -2.193830 
| 10> H -0.029783 -2.101880 -2.390040 
| 11> H 0.788379 -1.628820 -1.214850 
| 12> H 1.365910 -1.417280 -2.755480 
| 13> H -1.027570 -0.015905 -1.456280 
| 14> H -0.939815 -0.174784 -3.078340 
| 15> H 0.440022 0.616522 -2.280980 
| 16> Pb -3.051080 -2.492420 -2.293620 
| 17> Cl -1.164720 -2.724520 -0.637424 
| 18> Cl -3.559820 -0.258397 -2.908690 
| 19> Cl -4.865480 -4.085390 -1.704650 
| 20> *
| 21> 
| 22>                          ****END OF INPUT****
================================================================================

                     *******************************
                     * Energy+Gradient Calculation *
                     *******************************

---------------------------------
CARTESIAN COORDINATES (ANGSTROEM)
---------------------------------
  C     -0.250268   -0.167812   -2.280710
  N      0.452847   -1.412560   -2.193830
  H     -0.029783   -2.101880   -2.390040
  H      0.788379   -1.628820   -1.214850
  H      1.365910   -1.417280   -2.755480
  H     -1.027570   -0.015905   -1.456280
  H     -0.939815   -0.174784   -3.078340
  H      0.440022    0.616522   -2.280980
  Pb    -3.051080   -2.492420   -2.293620
  Cl    -1.164720   -2.724520   -0.637424
  Cl    -3.559820   -0.258397   -2.908690
  Cl    -4.865480   -4.085390   -1.704650

----------------------------
CARTESIAN COORDINATES (A.U.)
----------------------------
  NO LB      ZA    FRAG    MASS        X           Y           Z
   0 C     6.0000    0    12.011         -0.472937980084204         -0.317118721985593         -4.309917290895538
   1 N     7.0000    0    14.007          0.855756810567837         -2.669351547731803         -4.145737884380460
   2 H     1.0000    0     1.008         -0.056281713446577         -3.971977566366400         -4.516521049117149
   3 H     1.0000    0     1.008          1.489820399734703         -3.078023721453613         -2.295733793794232
   4 H     1.0000    0     1.008          2.581195823584377         -2.678271055083912         -5.207102567497331
   5 H     1.0000    0     1.008         -1.941825883433461         -0.030056094160018         -2.751970374306840
   6 H     1.0000    0     1.008         -1.775992966551201         -0.330293892591292         -5.817219547095146
   7 H     1.0000    0     1.008          0.831521072900297          1.165057735537398         -4.310427516951696
   8 Pb   22.0000*   0   207.200  -5.765705612684452  -4.709991210708006  -4.334313655284461
   9 Cl   17.0000    0    35.453         -2.201001822700760         -5.148596646391129         -1.204556791188620
  10 Cl   17.0000    0    35.453         -6.727084886055550         -0.488299563826850         -5.496627508475406
  11 Cl   17.0000    0    35.453         -9.194424710071171         -7.720268250260543         -3.221321654188862
* core charge reduced due to ECP

--------------------------------
INTERNAL COORDINATES (ANGSTROEM)
--------------------------------
 C      0   0   0   0.000000     0.000     0.000
 N      1   0   0   1.432242     0.000     0.000
 H      2   1   0   0.864056   113.913     0.000
 H      2   1   3   1.057238   112.939   242.989
 H      2   1   3   1.071987   112.966   127.417
 H      1   2   3   1.143223   113.924    70.830
 H      1   2   3   1.054390   111.173   323.899
 H      1   2   3   1.044835   109.153   194.816
 Pb     3   2   1   3.047959   130.445   336.152
 Cl     3   2   1   2.178859   109.650   276.327
 Cl     9   3   2   2.372338    94.802    34.243
 Cl     9   3   2   2.485254   144.420   220.298

---------------------------
INTERNAL COORDINATES (A.U.)
---------------------------
 C      0   0   0   0.000000     0.000     0.000
 N      1   0   0   2.706545     0.000     0.000
 H      2   1   0   1.632829   113.913     0.000
 H      2   1   3   1.997890   112.939   242.989
 H      2   1   3   2.025763   112.966   127.417
 H      1   2   3   2.160378   113.924    70.830
 H      1   2   3   1.992507   111.173   323.899
 H      1   2   3   1.974452   109.153   194.816
 Pb     3   2   1   5.759808   130.445   336.152
 Cl     3   2   1   4.117446   109.650   276.327
 Cl     9   3   2   4.483069    94.802    34.243
 Cl     9   3   2   4.696449   144.420   220.298

---------------------
BASIS SET INFORMATION
---------------------
There are 5 groups of distinct atoms

 Group   1 Type C   : 11s6p2d1f contracted to 5s3p2d1f pattern {62111/411/11/1}
 Group   2 Type N   : 11s6p2d1f contracted to 5s3p2d1f pattern {62111/411/11/1}
 Group   3 Type H   : 5s1p contracted to 3s1p pattern {311/1}
 Group   4 Type Pb  : 10s9p8d2f contracted to 6s5p3d2f pattern {421111/33111/611/11}
 Group   5 Type Cl  : 14s9p3d1f contracted to 5s5p2d1f pattern {73211/51111/21/1}

Atom   0C    basis set group =>   1
Atom   1N    basis set group =>   2
Atom   2H    basis set group =>   3
Atom   3H    basis set group =>   3
Atom   4H    basis set group =>   3
Atom   5H    basis set group =>   3
Atom   6H    basis set group =>   3
Atom   7H    basis set group =>   3
Atom   8Pb   basis set group =>   4
Atom   9Cl   basis set group =>   5
Atom  10Cl   basis set group =>   5
Atom  11Cl   basis set group =>   5
-------------------------------
AUXILIARY BASIS SET INFORMATION
-------------------------------
There are 5 groups of distinct atoms

 Group   1 Type C   : 12s5p4d2f1g contracted to 6s4p3d1f1g pattern {711111/2111/211/2/1}
 Group   2 Type N   : 12s5p4d2f1g contracted to 6s4p3d1f1g pattern {711111/2111/211/2/1}
 Group   3 Type H   : 5s2p1d contracted to 3s1p1d pattern {311/2/1}
 Group   4 Type Pb  : 31s12p8d6f3g contracted to 31s12p8d6f3g pattern {1111111111111111111111111111111/111111111111/11111111/111111/111}
 Group   5 Type Cl  : 14s5p5d2f1g contracted to 8s4p3d1f1g pattern {71111111/2111/311/2/1}

Atom   0C    basis set group =>   1
Atom   1N    basis set group =>   2
Atom   2H    basis set group =>   3
Atom   3H    basis set group =>   3
Atom   4H    basis set group =>   3
Atom   5H    basis set group =>   3
Atom   6H    basis set group =>   3
Atom   7H    basis set group =>   3
Atom   8Pb   basis set group =>   4
Atom   9Cl   basis set group =>   5
Atom  10Cl   basis set group =>   5
Atom  11Cl   basis set group =>   5

-------------------------
ECP PARAMETER INFORMATION
-------------------------

 Group 1, Type Pb ECP SD(60,MDF) (replacing 60 core electrons, lmax=5)

Atom   8Pb   ECP group =>   1


------------------------------------------------------------------------------
                           ORCA GTO INTEGRAL CALCULATION
                           -- RI-GTO INTEGRALS CHOSEN --
------------------------------------------------------------------------------

                         BASIS SET STATISTICS AND STARTUP INFO

Gaussian basis set:
 # of primitive gaussian shells          ...  186
 # of primitive gaussian functions       ...  420
 # of contracted shells                  ...  101
 # of contracted basis functions         ...  259
 Highest angular momentum                ...    3
 Maximum contraction depth               ...    7
Auxiliary gaussian basis set:
 # of primitive gaussian shells          ...  237
 # of primitive gaussian functions       ...  643
 # of contracted shells                  ...  171
 # of contracted aux-basis functions     ...  493
 Highest angular momentum                ...    4
 Maximum contraction depth               ...    7
Ratio of auxiliary to basis functions    ...  1.90
Integral package used                  ... LIBINT
 One Electron integrals                  
   ECP integrals                         ... done
 Ordering auxiliary basis shells         ... done
 Integral threshhold             Thresh  ...  2.500e-11
 Primitive cut-off               TCut    ...  2.500e-12
 Pre-screening matrix                    ... done
 Shell pair data                         ... 
 Ordering of the shell pairs             ... done (   0.001 sec) 4309 of 5151 pairs
 Determination of significant pairs      ... done (   0.000 sec)
 Creation of shell pair data             ... done (   0.002 sec)
 Storage of shell pair data              ... done (   0.001 sec)
 Shell pair data done in (   0.003 sec)
 Computing two index integrals           ... done
 Cholesky decomposition of the V-matrix  ... done


Timings:
 Total evaluation time                   ...   0.545 sec (  0.009 min)
 One electron matrix time                ...   0.297 sec (  0.005 min) = 54.5%
 Schwartz matrix evaluation time         ...   0.203 sec (  0.003 min) = 37.3%
 Two index repulsion integral time       ...   0.008 sec (  0.000 min) =  1.4%
 Cholesky decomposition of V             ...   0.007 sec (  0.000 min) =  1.3%
 Three index repulsion integral time     ...   0.000 sec (  0.000 min) =  0.0%

-------------------------------------------------------------------------------
                                 ORCA SCF
-------------------------------------------------------------------------------

------------
SCF SETTINGS
------------
Hamiltonian:
 Density Functional     Method          .... DFT(GTOs)
 Exchange Functional    Exchange        .... B88
   X-Alpha parameter    XAlpha          ....  0.666667
   Becke's b parameter  XBeta           ....  0.004200
 Correlation Functional Correlation     .... LYP
 LDA part of GGA corr.  LDAOpt          .... VWN-3
 Gradients option       PostSCFGGA      .... off
 Hybrid DFT is turned on
   Fraction HF Exchange ScalHFX         ....  0.530000
   Scaling of DF-GGA-X  ScalDFX         ....  0.470000
   Scaling of DF-GGA-C  ScalDFC         ....  0.730000
   Scaling of DF-LDA-C  ScalLDAC        ....  0.730000
   Perturbative correction              ....  0.270000
 RI-approximation to the Coulomb term is turned on
   Number of auxiliary basis functions  .... 493
   RIJ-COSX (HFX calculated with COS-X)).... on


General Settings:
 Integral files         IntName         .... PbMACl3_mp2_md_23.orca
 Hartree-Fock type      HFTyp           .... RHF
 Total Charge           Charge          ....    0
 Multiplicity           Mult            ....    1
 Number of Electrons    NEL             ....   92
 Basis Dimension        Dim             ....  259
 Nuclear Repulsion      ENuc            ....    595.4451541419 Eh

Convergence Acceleration:
 DIIS                   CNVDIIS         .... on
   Start iteration      DIISMaxIt       ....     0
   Startup error        DIISStart       ....  0.200000
   # of expansion vecs  DIISMaxEq       ....     5
   Bias factor          DIISBfac        ....   1.050
   Max. coefficient     DIISMaxC        ....  10.000
 Newton-Raphson         CNVNR           .... off
 SOSCF                  CNVSOSCF        .... on
   Start iteration      SOSCFMaxIt      ....   150
   Startup grad/error   SOSCFStart      ....  0.001000
 Level Shifting         CNVShift        .... on
   Level shift para.    LevelShift      ....    0.2500
   Turn off err/grad.   ShiftErr        ....    0.0000
 Zerner damping         CNVZerner       .... off
 Static damping         CNVDamp         .... on
   Fraction old density DampFac         ....    0.8500
   Max. Damping (<1)    DampMax         ....    0.9800
   Min. Damping (>=0)   DampMin         ....    0.0000
   Turn off err/grad.   DampErr         ....    0.0300
 Fernandez-Rico         CNVRico         .... off

SCF Procedure:
 Maximum # iterations   MaxIter         ....   125
 SCF integral mode      SCFMode         .... Direct
   Integral package                     .... LIBINT
 Reset frequeny         DirectResetFreq ....    20
 Integral Threshold     Thresh          ....  2.500e-11 Eh
 Primitive CutOff       TCut            ....  2.500e-12 Eh

Convergence Tolerance:
 Convergence Check Mode ConvCheckMode   .... Total+1el-Energy
 Energy Change          TolE            ....  1.000e-08 Eh
 1-El. energy change                    ....  1.000e-05 Eh
 Orbital Gradient       TolG            ....  1.000e-05
 Orbital Rotation angle TolX            ....  1.000e-05
 DIIS Error             TolErr          ....  5.000e-07


Diagonalization of the overlap matrix:
Smallest eigenvalue                        ... 6.864e-04
Time for diagonalization                   ...    0.015 sec
Threshold for overlap eigenvalues          ... 1.000e-08
Number of eigenvalues below threshold      ... 0
Time for construction of square roots      ...    0.005 sec
Total time needed                          ...    0.021 sec

---------------------
INITIAL GUESS: MOREAD
---------------------
Guess MOs are being read from file: previous.gbw
Input geometry compatible with but different from current geometry
Input basis set matches current basis set (good)
MOs were renormalized
MOs were reorthogonalized (Schmidt)
                      ------------------
                      INITIAL GUESS DONE (   0.1 sec)
                      ------------------
-------------------
DFT GRID GENERATION
-------------------

General Integration Accuracy     IntAcc      ...  5.010
Radial Grid Type                 RadialGrid  ... Gauss-Chebyshev
Angular Grid (max. acc.)         AngularGrid ... Lebedev-434
Angular grid pruning method      GridPruning ... 3 (G Style)
Weight generation scheme         WeightScheme... Becke
Basis function cutoff            BFCut       ...    1.0000e-11
Integration weight cutoff        WCut        ...    1.0000e-14
Grids for H and He will be reduced by one unit

# of grid points (after initial pruning)     ... 115882 (   0.0 sec)
# of grid points (after weights+screening)   ... 108604 (   0.2 sec)
nearest neighbour list constructed           ...    0.0 sec
Grid point re-assignment to atoms done       ...    0.0 sec
Grid point division into batches done        ...    0.9 sec
Reduced shell lists constructed in    3.2 sec

Total number of grid points                  ...   108604
Total number of batches                      ...     1704
Average number of points per batch           ...       63
Average number of grid points per atom       ...     9050
Average number of shells per batch           ...    53.80 (53.27%)
Average number of basis functions per batch  ...   141.87 (54.78%)
Average number of large shells per batch     ...    40.85 (75.92%)
Average number of large basis fcns per batch ...   106.03 (74.74%)
Maximum spatial batch extension              ...  27.65, 35.52, 34.70 au
Average spatial batch extension              ...   2.33,  2.46,  2.51 au

Time for grid setup =    3.476 sec

--------------------
COSX GRID GENERATION
--------------------

General Integration Accuracy     IntAcc      ...  3.340
Radial Grid Type                 RadialGrid  ... Gauss-Chebyshev
Angular Grid (max. acc.)         AngularGrid ... Lebedev-50
Angular grid pruning method      GridPruning ... 3 (G Style)
Weight generation scheme         WeightScheme... Becke
Basis function cutoff            BFCut       ...    1.0000e-11
Integration weight cutoff        WCut        ...    1.0000e-14
Grids for H and He will be reduced by one unit

# of grid points (after initial pruning)     ...   6578 (   0.0 sec)
# of grid points (after weights+screening)   ...   6246 (   0.0 sec)
nearest neighbour list constructed           ...    0.0 sec
Grid point re-assignment to atoms done       ...    0.0 sec
Grid point division into batches done        ...    0.0 sec
Reduced shell lists constructed in    0.2 sec

Total number of grid points                  ...     6246
Total number of batches                      ...      102
Average number of points per batch           ...       61
Average number of grid points per atom       ...      520
Average number of shells per batch           ...    65.58 (64.93%)
Average number of basis functions per batch  ...   175.89 (67.91%)
Average number of large shells per batch     ...    51.27 (78.18%)
Average number of large basis fcns per batch ...   135.70 (77.15%)
Maximum spatial batch extension              ...  25.94, 25.51, 44.74 au
Average spatial batch extension              ...   5.91,  6.57,  7.48 au

Overlap Fitting                  UseSFitting ... on
Constructing numerical overlap ... done (      0.1 sec)
Inverting numerical overlap    ... done (      0.0 sec)
Obtaining analytic overlap     ... done (      0.0 sec)
Final contraction and storage  ... done (      0.0 sec)


General Integration Accuracy     IntAcc      ...  3.670
Radial Grid Type                 RadialGrid  ... Gauss-Chebyshev
Angular Grid (max. acc.)         AngularGrid ... Lebedev-50
Angular grid pruning method      GridPruning ... 3 (G Style)
Weight generation scheme         WeightScheme... Becke
Basis function cutoff            BFCut       ...    1.0000e-11
Integration weight cutoff        WCut        ...    1.0000e-14
Grids for H and He will be reduced by one unit

# of grid points (after initial pruning)     ...   8124 (   0.0 sec)
# of grid points (after weights+screening)   ...   7694 (   0.0 sec)
nearest neighbour list constructed           ...    0.0 sec
Grid point re-assignment to atoms done       ...    0.0 sec
Grid point division into batches done        ...    0.0 sec
Reduced shell lists constructed in    0.2 sec

Total number of grid points                  ...     7694
Total number of batches                      ...      125
Average number of points per batch           ...       61
Average number of grid points per atom       ...      641
Average number of shells per batch           ...    64.50 (63.86%)
Average number of basis functions per batch  ...   172.20 (66.49%)
Average number of large shells per batch     ...    50.40 (78.13%)
Average number of large basis fcns per batch ...   132.40 (76.89%)
Maximum spatial batch extension              ...  24.93, 31.26, 46.50 au
Average spatial batch extension              ...   5.13,  5.90,  6.68 au

Overlap Fitting                  UseSFitting ... on
Constructing numerical overlap ... done (      0.1 sec)
Inverting numerical overlap    ... done (      0.0 sec)
Obtaining analytic overlap     ... done (      0.0 sec)
Final contraction and storage  ... done (      0.0 sec)


General Integration Accuracy     IntAcc      ...  4.010
Radial Grid Type                 RadialGrid  ... Gauss-Chebyshev
Angular Grid (max. acc.)         AngularGrid ... Lebedev-110
Angular grid pruning method      GridPruning ... 3 (G Style)
Weight generation scheme         WeightScheme... Becke
Basis function cutoff            BFCut       ...    1.0000e-11
Integration weight cutoff        WCut        ...    1.0000e-14
Grids for H and He will be reduced by one unit

# of grid points (after initial pruning)     ...  15170 (   0.0 sec)
# of grid points (after weights+screening)   ...  14406 (   0.0 sec)
nearest neighbour list constructed           ...    0.0 sec
Grid point re-assignment to atoms done       ...    0.0 sec
Grid point division into batches done        ...    0.0 sec
Reduced shell lists constructed in    0.4 sec

Total number of grid points                  ...    14406
Total number of batches                      ...      232
Average number of points per batch           ...       62
Average number of grid points per atom       ...     1200
Average number of shells per batch           ...    60.95 (60.35%)
Average number of basis functions per batch  ...   162.43 (62.71%)
Average number of large shells per batch     ...    47.09 (77.26%)
Average number of large basis fcns per batch ...   123.78 (76.20%)
Maximum spatial batch extension              ...  28.04, 30.32, 39.26 au
Average spatial batch extension              ...   4.54,  4.90,  5.27 au

Overlap Fitting                  UseSFitting ... on
Constructing numerical overlap ... done (      0.2 sec)
Inverting numerical overlap    ... done (      0.0 sec)
Obtaining analytic overlap     ... done (      0.0 sec)
Final contraction and storage  ... done (      0.0 sec)

Time for X-Grid setup             =    1.334 sec
--------------
SCF ITERATIONS
--------------
ITER       Energy         Delta-E        Max-DP      RMS-DP      [F,P]     Damp
               ***  Starting incremental Fock matrix formation  ***
  0  -1663.4602700163   0.000000000000 0.13046322  0.00232135  0.6349706 0.8500
  1  -1664.2282064219  -0.767936405628 0.11250597  0.00205979  0.5402653 0.8500
                               ***Turning on DIIS***
  2  -1664.8767998726  -0.648593450676 0.09202290  0.00176980  0.4594825 0.8500
  3  -1665.4304388878  -0.553639015192 0.07423657  0.00151017  0.3907557 0.8500
  4  -1665.9105584428  -0.480119554968 0.06110533  0.00130600  0.3322470 0.8500
  5  -1666.3254176438  -0.414859201021 0.05099463  0.00113506  0.2824532 0.8500
  6  -1666.6861864326  -0.360768788783 0.04332520  0.00098214  0.2401052 0.8500
  7  -1667.0005657061  -0.314379273585 0.03712624  0.00084548  0.2041036 0.8500
  8  -1667.2740286299  -0.273462923762 0.03198354  0.00072491  0.1735022 0.8500
  9  -1667.5104158314  -0.236387201526 0.02734807  0.00061992  0.1474890 0.8500
 10  -1667.7140091737  -0.203593342295 0.02322691  0.00052956  0.1253749 0.8500
 11  -1667.8890532097  -0.175044035985 0.01970297  0.00045218  0.1065754 0.8500
 12  -1668.0393604264  -0.150307216697 0.01673831  0.00038600  0.0905942 0.8500
 13  -1668.1682556858  -0.128895259346 0.01424244  0.00032935  0.0770088 0.8500
 14  -1668.2786342745  -0.110378588704 0.01211848  0.00028089  0.0654602 0.8500
 15  -1668.3730412682  -0.094406993737 0.01030236  0.00023949  0.0556432 0.8500
 16  -1668.4537108050  -0.080669536781 0.00875420  0.00020416  0.0472982 0.8500
 17  -1668.5225893481  -0.068878543159 0.00743967  0.00017404  0.0402046 0.8500
 18  -1668.5813621798  -0.058772831672 0.00632478  0.00014835  0.0341747 0.8500
 19  -1668.6314835324  -0.050121352580 0.03585244  0.00084302  0.0290490 0.0000
               *** Restarting incremental Fock matrix formation ***
                                   *** Resetting DIIS ***
                      *** Initiating the SOSCF procedure ***
                           *** Shutting down DIIS ***
                      *** Re-Reading the Fockian *** 
                      *** Removing any level shift *** 
ITER      Energy       Delta-E        Grad      Rot      Max-DP    RMS-DP
 20  -1668.92144785  -0.2899643202  0.000385  0.000385  0.001297  0.000028
               *** Restarting incremental Fock matrix formation ***
 21  -1668.91850549   0.0029423640  0.000346  0.000555  0.001030  0.000026
 22  -1668.91850522   0.0000002641  0.000060  0.000270  0.000605  0.000009
 23  -1668.91850499   0.0000002345  0.000076  0.000026  0.000188  0.000004
 24  -1668.91850538  -0.0000003919  0.000012  0.000039  0.000045  0.000001
 25  -1668.91850546  -0.0000000819  0.000006  0.000017  0.000024  0.000000
                  ***Gradient check signals convergence***
              ***Rediagonalizing the Fockian in SOSCF/NRSCF***

               *****************************************************
               *                     SUCCESS                       *
               *           SCF CONVERGED AFTER  26 CYCLES          *
               *****************************************************

Old exchange energy                            =    -59.280490002 Eh
New exchange energy                            =    -59.284203470 Eh
Exchange energy change after final integration =     -0.003713468 Eh
Total energy after final integration           =  -1668.922218932 Eh
Final COS-X integration done in                =    19.248 sec

----------------
TOTAL SCF ENERGY
----------------

Total Energy       :        -1668.92221893 Eh          -45413.68236 eV

Components:
Nuclear Repulsion  :          595.44515414 Eh           16202.88638 eV
Electronic Energy  :        -2264.36737307 Eh          -61616.56875 eV

One Electron Energy:        -3561.86214974 Eh          -96923.19657 eV
Two Electron Energy:         1297.49477666 Eh           35306.62783 eV

Virial components:
Potential Energy   :        -3207.39113664 Eh          -87277.54993 eV
Kinetic Energy     :         1538.46891771 Eh           41863.86757 eV
Virial Ratio       :            2.08479424


DFT components:
N(Alpha)           :       46.000021336978 electrons
N(Beta)            :       46.000021336978 electrons
N(Total)           :       92.000042673957 electrons
E(X)               :      -52.642480244256 Eh       
E(C)               :       -2.614518510685 Eh       
E(XC)              :      -55.256998754940 Eh       

---------------
SCF CONVERGENCE
---------------

  Last Energy change         ...   -1.6871e-10  Tolerance :   1.0000e-08
  Last MAX-Density change    ...    9.4542e-15  Tolerance :   1.0000e-07
  Last RMS-Density change    ...    1.0319e-16  Tolerance :   5.0000e-09
  Last Orbital Gradient      ...    2.3349e-06  Tolerance :   1.0000e-05
  Last Orbital Rotation      ...    1.9134e-06  Tolerance :   1.0000e-05

             **** THE GBW FILE WAS UPDATED (PbMACl3_mp2_md_23.orca.gbw) ****
             **** DENSITY FILE WAS UPDATED (PbMACl3_mp2_md_23.orca.scfp.tmp) ****
             **** ENERGY FILE WAS UPDATED (PbMACl3_mp2_md_23.orca.en.tmp) ****
----------------
ORBITAL ENERGIES
----------------

  NO   OCC          E(Eh)            E(eV) 
   0   2.0000    -102.850041     -2798.6919 
   1   2.0000    -102.845783     -2798.5760 
   2   2.0000    -102.819279     -2797.8548 
   3   2.0000     -15.013624      -408.5415 
   4   2.0000     -10.710459      -291.4464 
   5   2.0000      -9.860278      -268.3118 
   6   2.0000      -9.855127      -268.1716 
   7   2.0000      -9.826489      -267.3924 
   8   2.0000      -7.496858      -203.9999 
   9   2.0000      -7.495549      -203.9643 
  10   2.0000      -7.495369      -203.9594 
  11   2.0000      -7.491999      -203.8676 
  12   2.0000      -7.490199      -203.8187 
  13   2.0000      -7.490108      -203.8162 
  14   2.0000      -7.463772      -203.0996 
  15   2.0000      -7.461566      -203.0395 
  16   2.0000      -7.461487      -203.0374 
  17   2.0000      -5.773585      -157.1072 
  18   2.0000      -3.546117       -96.4947 
  19   2.0000      -3.544298       -96.4452 
  20   2.0000      -3.542960       -96.4088 
  21   2.0000      -1.223986       -33.3064 
  22   2.0000      -0.957903       -26.0659 
  23   2.0000      -0.949546       -25.8385 
  24   2.0000      -0.943426       -25.6719 
  25   2.0000      -0.935300       -25.4508 
  26   2.0000      -0.934861       -25.4389 
  27   2.0000      -0.900997       -24.5174 
  28   2.0000      -0.883014       -24.0280 
  29   2.0000      -0.859681       -23.3931 
  30   2.0000      -0.832821       -22.6622 
  31   2.0000      -0.765113       -20.8198 
  32   2.0000      -0.709028       -19.2936 
  33   2.0000      -0.647522       -17.6200 
  34   2.0000      -0.566942       -15.4273 
  35   2.0000      -0.544242       -14.8096 
  36   2.0000      -0.501390       -13.6435 
  37   2.0000      -0.395585       -10.7644 
  38   2.0000      -0.379377       -10.3234 
  39   2.0000      -0.366105        -9.9622 
  40   2.0000      -0.354547        -9.6477 
  41   2.0000      -0.349974        -9.5233 
  42   2.0000      -0.343424        -9.3451 
  43   2.0000      -0.316321        -8.6075 
  44   2.0000      -0.313176        -8.5219 
  45   2.0000      -0.240396        -6.5415 
  46   0.0000      -0.017735        -0.4826 
  47   0.0000      -0.009077        -0.2470 
  48   0.0000       0.036362         0.9895 
  49   0.0000       0.061931         1.6852 
  50   0.0000       0.064839         1.7644 
  51   0.0000       0.085070         2.3149 
  52   0.0000       0.101409         2.7595 
  53   0.0000       0.117246         3.1904 
  54   0.0000       0.137563         3.7433 
  55   0.0000       0.143925         3.9164 
  56   0.0000       0.147902         4.0246 
  57   0.0000       0.157857         4.2955 
  58   0.0000       0.182788         4.9739 
  59   0.0000       0.209205         5.6928 
  60   0.0000       0.226254         6.1567 
  61   0.0000       0.247277         6.7288 
  62   0.0000       0.252533         6.8718 
  63   0.0000       0.281391         7.6570 
  64   0.0000       0.285405         7.7663 
  65   0.0000       0.302383         8.2283 
  66   0.0000       0.304415         8.2835 
  67   0.0000       0.318190         8.6584 
  68   0.0000       0.340468         9.2646 
  69   0.0000       0.374445        10.1892 
  70   0.0000       0.394014        10.7217 
  71   0.0000       0.410397        11.1675 
  72   0.0000       0.417534        11.3617 
  73   0.0000       0.438312        11.9271 
  74   0.0000       0.443862        12.0781 
  75   0.0000       0.453367        12.3368 
  76   0.0000       0.456692        12.4272 
  77   0.0000       0.470788        12.8108 
  78   0.0000       0.473774        12.8921 
  79   0.0000       0.483497        13.1566 
  80   0.0000       0.483980        13.1698 
  81   0.0000       0.494423        13.4539 
  82   0.0000       0.495725        13.4894 
  83   0.0000       0.502065        13.6619 
  84   0.0000       0.517523        14.0825 
  85   0.0000       0.528648        14.3853 
  86   0.0000       0.536537        14.5999 
  87   0.0000       0.549725        14.9588 
  88   0.0000       0.569923        15.5084 
  89   0.0000       0.579841        15.7783 
  90   0.0000       0.585367        15.9286 
  91   0.0000       0.593014        16.1367 
  92   0.0000       0.606568        16.5056 
  93   0.0000       0.609068        16.5736 
  94   0.0000       0.628596        17.1050 
  95   0.0000       0.631617        17.1872 
  96   0.0000       0.643595        17.5131 
  97   0.0000       0.663640        18.0586 
  98   0.0000       0.698767        19.0144 
  99   0.0000       0.715222        19.4622 
 100   0.0000       0.733536        19.9605 
 101   0.0000       0.757153        20.6032 
 102   0.0000       0.767647        20.8887 
 103   0.0000       0.784531        21.3482 
 104   0.0000       0.795608        21.6496 
 105   0.0000       0.838996        22.8302 
 106   0.0000       0.865023        23.5385 
 107   0.0000       0.882317        24.0091 
 108   0.0000       0.895816        24.3764 
 109   0.0000       0.909785        24.7565 
 110   0.0000       0.928990        25.2791 
 111   0.0000       0.948836        25.8192 
 112   0.0000       0.957521        26.0555 
 113   0.0000       0.968374        26.3508 
 114   0.0000       0.987411        26.8688 
 115   0.0000       1.010541        27.4982 
 116   0.0000       1.022469        27.8228 
 117   0.0000       1.067106        29.0374 
 118   0.0000       1.093042        29.7432 
 119   0.0000       1.100456        29.9449 
 120   0.0000       1.128869        30.7181 
 121   0.0000       1.155949        31.4550 
 122   0.0000       1.173976        31.9455 
 123   0.0000       1.182750        32.1843 
 124   0.0000       1.220044        33.1991 
 125   0.0000       1.263566        34.3834 
 126   0.0000       1.309074        35.6217 
 127   0.0000       1.327997        36.1366 
 128   0.0000       1.354683        36.8628 
 129   0.0000       1.377604        37.4865 
 130   0.0000       1.392910        37.9030 
 131   0.0000       1.516629        41.2696 
 132   0.0000       1.548188        42.1283 
 133   0.0000       1.599871        43.5347 
 134   0.0000       1.617323        44.0096 
 135   0.0000       1.659025        45.1444 
 136   0.0000       1.736125        47.2424 
 137   0.0000       1.790947        48.7341 
 138   0.0000       1.815862        49.4121 
 139   0.0000       1.864730        50.7419 
 140   0.0000       1.890473        51.4424 
 141   0.0000       1.905947        51.8635 
 142   0.0000       1.931174        52.5499 
 143   0.0000       1.939373        52.7730 
 144   0.0000       1.949982        53.0617 
 145   0.0000       1.955928        53.2235 
 146   0.0000       1.968587        53.5680 
 147   0.0000       1.987313        54.0775 
 148   0.0000       1.997154        54.3453 
 149   0.0000       2.010579        54.7106 
 150   0.0000       2.015089        54.8334 
 151   0.0000       2.027755        55.1780 
 152   0.0000       2.037578        55.4453 
 153   0.0000       2.051629        55.8277 
 154   0.0000       2.075755        56.4842 
 155   0.0000       2.082678        56.6725 
 156   0.0000       2.090444        56.8839 
 157   0.0000       2.109099        57.3915 
 158   0.0000       2.119017        57.6614 
 159   0.0000       2.136441        58.1355 
 160   0.0000       2.144758        58.3618 
 161   0.0000       2.152762        58.5796 
 162   0.0000       2.167950        58.9929 
 163   0.0000       2.181701        59.3671 
 164   0.0000       2.190371        59.6030 
 165   0.0000       2.198606        59.8271 
 166   0.0000       2.211603        60.1808 
 167   0.0000       2.246545        61.1316 
 168   0.0000       2.250033        61.2265 
 169   0.0000       2.254111        61.3375 
 170   0.0000       2.257942        61.4417 
 171   0.0000       2.265465        61.6464 
 172   0.0000       2.276193        61.9384 
 173   0.0000       2.284873        62.1746 
 174   0.0000       2.289501        62.3005 
 175   0.0000       2.290581        62.3299 
 176   0.0000       2.311568        62.9010 
 177   0.0000       2.323525        63.2263 
 178   0.0000       2.334317        63.5200 
 179   0.0000       2.346649        63.8556 
 180   0.0000       2.355109        64.0858 
 181   0.0000       2.364873        64.3515 
 182   0.0000       2.377244        64.6881 
 183   0.0000       2.392889        65.1138 
 184   0.0000       2.404016        65.4166 
 185   0.0000       2.412282        65.6415 
 186   0.0000       2.416895        65.7671 
 187   0.0000       2.433377        66.2156 
 188   0.0000       2.447716        66.6057 
 189   0.0000       2.448019        66.6140 
 190   0.0000       2.462771        67.0154 
 191   0.0000       2.470465        67.2248 
 192   0.0000       2.490463        67.7689 
 193   0.0000       2.513089        68.3846 
 194   0.0000       2.534933        68.9790 
 195   0.0000       2.547138        69.3111 
 196   0.0000       2.566338        69.8336 
 197   0.0000       2.583543        70.3018 
 198   0.0000       2.607344        70.9494 
 199   0.0000       2.652899        72.1890 
 200   0.0000       2.656906        72.2981 
 201   0.0000       2.700055        73.4722 
 202   0.0000       2.723803        74.1185 
 203   0.0000       2.734677        74.4144 
 204   0.0000       2.791690        75.9657 
 205   0.0000       2.816444        76.6393 
 206   0.0000       2.862338        77.8882 
 207   0.0000       2.878032        78.3152 
 208   0.0000       2.888772        78.6075 
 209   0.0000       2.913028        79.2675 
 210   0.0000       2.918440        79.4148 
 211   0.0000       3.025223        82.3205 
 212   0.0000       3.122004        84.9541 
 213   0.0000       3.155827        85.8744 
 214   0.0000       3.177018        86.4511 
 215   0.0000       3.307083        89.9903 
 216   0.0000       3.372134        91.7604 
 217   0.0000       3.452313        93.9422 
 218   0.0000       3.559927        96.8705 
 219   0.0000       3.587870        97.6309 
 220   0.0000       3.607770        98.1724 
 221   0.0000       3.666406        99.7680 
 222   0.0000       3.795441       103.2792 
 223   0.0000       3.845713       104.6472 
 224   0.0000       3.942566       107.2827 
 225   0.0000       4.138190       112.6059 
 226   0.0000       4.307705       117.2186 
 227   0.0000       4.409425       119.9865 
 228   0.0000       4.555731       123.9677 
 229   0.0000       4.789471       130.3281 
 230   0.0000       4.829074       131.4058 
 231   0.0000       4.951568       134.7390 
 232   0.0000       4.977503       135.4447 
 233   0.0000       5.020686       136.6198 
 234   0.0000       5.057192       137.6132 
 235   0.0000       5.185630       141.1082 
 236   0.0000       5.282802       143.7524 
 237   0.0000       5.487508       149.3227 
 238   0.0000       5.565855       151.4546 
 239   0.0000       6.214750       169.1119 
 240   0.0000      11.067365       301.1583 
 241   0.0000      11.069078       301.2049 
 242   0.0000      11.094668       301.9013 
 243   0.0000      11.095984       301.9371 
 244   0.0000      11.107841       302.2597 
 245   0.0000      11.169646       303.9415 
 246   0.0000      11.209932       305.0378 
 247   0.0000      11.233232       305.6718 
 248   0.0000      11.268666       306.6360 
 249   0.0000      22.824278       621.0802 
 250   0.0000      25.242034       686.8707 
 251   0.0000      25.327147       689.1867 
 252   0.0000      25.408522       691.4010 
 253   0.0000      32.387038       881.2961 
 254   0.0000      35.671933       970.6826 
 255   0.0000      35.780475       973.6362 
 256   0.0000      35.889772       976.6104 
 257   0.0000      35.952680       978.3222 
 258   0.0000     123.679252      3365.4835 

                    ********************************
                    * MULLIKEN POPULATION ANALYSIS *
                    ********************************

-----------------------
MULLIKEN ATOMIC CHARGES
-----------------------
   0 C :   -0.296777
   1 N :   -0.210730
   2 H :    0.227639
   3 H :    0.311781
   4 H :    0.283593
   5 H :    0.203916
   6 H :    0.183389
   7 H :    0.155524
   8 Pb:    0.786213
   9 Cl:   -0.605220
  10 Cl:   -0.520867
  11 Cl:   -0.518461
Sum of atomic charges:   -0.0000000

--------------------------------
MULLIKEN REDUCED ORBITAL CHARGES
--------------------------------
  0 C s       :     3.256607  s :     3.256607
      pz      :     1.175530  p :     2.966452
      px      :     1.013489
      py      :     0.777433
      dz2     :     0.009005  d :     0.067055
      dxz     :     0.019245
      dyz     :     0.008130
      dx2y2   :     0.012318
      dxy     :     0.018358
      f0      :     0.000562  f :     0.006663
      f+1     :     0.001152
      f-1     :     0.000702
      f+2     :     0.000397
      f-2     :     0.000695
      f+3     :     0.001617
      f-3     :     0.001539
  1 N s       :     3.383861  s :     3.383861
      pz      :     1.287927  p :     3.770305
      px      :     1.258376
      py      :     1.224002
      dz2     :     0.006047  d :     0.053987
      dxz     :     0.014242
      dyz     :     0.010861
      dx2y2   :     0.013769
      dxy     :     0.009068
      f0      :     0.000495  f :     0.002576
      f+1     :     0.000371
      f-1     :     0.000177
      f+2     :     0.000118
      f-2     :     0.000314
      f+3     :     0.000708
      f-3     :     0.000394
  2 H s       :     0.722076  s :     0.722076
      pz      :     0.011861  p :     0.050284
      px      :     0.016633
      py      :     0.021790
  3 H s       :     0.653903  s :     0.653903
      pz      :     0.020756  p :     0.034316
      px      :     0.007093
      py      :     0.006466
  4 H s       :     0.686900  s :     0.686900
      pz      :     0.009032  p :     0.029507
      px      :     0.015803
      py      :     0.004672
  5 H s       :     0.774009  s :     0.774009
      pz      :     0.009532  p :     0.022075
      px      :     0.009758
      py      :     0.002786
  6 H s       :     0.791034  s :     0.791034
      pz      :     0.010720  p :     0.025577
      px      :     0.011702
      py      :     0.003154
  7 H s       :     0.821363  s :     0.821363
      pz      :     0.005145  p :     0.023113
      px      :     0.007444
      py      :     0.010524
  8 Pbs       :     3.913543  s :     3.913543
      pz      :     2.337245  p :     7.056156
      px      :     2.377599
      py      :     2.341312
      dz2     :     2.024293  d :    10.167197
      dxz     :     2.033637
      dyz     :     2.034110
      dx2y2   :     2.041468
      dxy     :     2.033689
      f0      :     0.006127  f :     0.076891
      f+1     :     0.009172
      f-1     :     0.006814
      f+2     :     0.012978
      f-2     :     0.009703
      f+3     :     0.015823
      f-3     :     0.016274
  9 Cls       :     5.952841  s :     5.952841
      pz      :     3.882110  p :    11.628959
      px      :     3.821112
      py      :     3.925736
      dz2     :     0.003847  d :     0.022426
      dxz     :     0.010208
      dyz     :     0.002751
      dx2y2   :     0.003446
      dxy     :     0.002175
      f0      :     0.000098  f :     0.000995
      f+1     :     0.000231
      f-1     :     0.000044
      f+2     :     0.000251
      f-2     :     0.000153
      f+3     :     0.000099
      f-3     :     0.000119
 10 Cls       :     5.945695  s :     5.945695
      pz      :     3.871095  p :    11.549019
      px      :     3.908634
      py      :     3.769290
      dz2     :     0.003415  d :     0.024781
      dxz     :     0.001087
      dyz     :     0.005639
      dx2y2   :     0.009525
      dxy     :     0.005114
      f0      :     0.000142  f :     0.001373
      f+1     :     0.000029
      f-1     :     0.000242
      f+2     :     0.000237
      f-2     :     0.000098
      f+3     :     0.000306
      f-3     :     0.000320
 11 Cls       :     5.953856  s :     5.953856
      pz      :     3.921066  p :    11.544796
      px      :     3.828941
      py      :     3.794789
      dz2     :     0.002608  d :     0.018812
      dxz     :     0.002733
      dyz     :     0.002057
      dx2y2   :     0.003239
      dxy     :     0.008176
      f0      :     0.000096  f :     0.000998
      f+1     :     0.000099
      f-1     :     0.000085
      f+2     :     0.000027
      f-2     :     0.000187
      f+3     :     0.000231
      f-3     :     0.000273


                     *******************************
                     * LOEWDIN POPULATION ANALYSIS *
                     *******************************

----------------------
LOEWDIN ATOMIC CHARGES
----------------------
   0 C :   -0.311627
   1 N :    0.151498
   2 H :    0.080764
   3 H :    0.214165
   4 H :    0.222233
   5 H :    0.154708
   6 H :    0.116967
   7 H :    0.111095
   8 Pb:   -0.209009
   9 Cl:   -0.207906
  10 Cl:   -0.128378
  11 Cl:   -0.194510

-------------------------------
LOEWDIN REDUCED ORBITAL CHARGES
-------------------------------
  0 C s       :     2.831180  s :     2.831180
      pz      :     1.151964  p :     3.127014
      px      :     1.053423
      py      :     0.921627
      dz2     :     0.037901  d :     0.311220
      dxz     :     0.071022
      dyz     :     0.039430
      dx2y2   :     0.064352
      dxy     :     0.098514
      f0      :     0.003407  f :     0.042213
      f+1     :     0.003530
      f-1     :     0.005894
      f+2     :     0.005774
      f-2     :     0.004387
      f+3     :     0.008737
      f-3     :     0.010483
  1 N s       :     2.941717  s :     2.941717
      pz      :     1.226921  p :     3.694827
      px      :     1.209689
      py      :     1.258217
      dz2     :     0.024409  d :     0.199330
      dxz     :     0.045318
      dyz     :     0.035950
      dx2y2   :     0.050007
      dxy     :     0.043647
      f0      :     0.001874  f :     0.012628
      f+1     :     0.000698
      f-1     :     0.001344
      f+2     :     0.001853
      f-2     :     0.001951
      f+3     :     0.002246
      f-3     :     0.002662
  2 H s       :     0.758936  s :     0.758936
      pz      :     0.040108  p :     0.160301
      px      :     0.054845
      py      :     0.065349
  3 H s       :     0.688329  s :     0.688329
      pz      :     0.061119  p :     0.097506
      px      :     0.018520
      py      :     0.017867
  4 H s       :     0.691672  s :     0.691672
      pz      :     0.027855  p :     0.086095
      px      :     0.044065
      py      :     0.014176
  5 H s       :     0.786469  s :     0.786469
      pz      :     0.026175  p :     0.058823
      px      :     0.024807
      py      :     0.007840
  6 H s       :     0.807476  s :     0.807476
      pz      :     0.033557  p :     0.075557
      px      :     0.031315
      py      :     0.010685
  7 H s       :     0.818793  s :     0.818793
      pz      :     0.017692  p :     0.070112
      px      :     0.024513
      py      :     0.027907
  8 Pbs       :     3.657001  s :     3.657001
      pz      :     2.467935  p :     7.555752
      px      :     2.533483
      py      :     2.554334
      dz2     :     2.107872  d :    10.750930
      dxz     :     2.152785
      dyz     :     2.134460
      dx2y2   :     2.179149
      dxy     :     2.176664
      f0      :     0.019875  f :     0.245326
      f+1     :     0.028603
      f-1     :     0.020377
      f+2     :     0.046902
      f-2     :     0.026967
      f+3     :     0.048719
      f-3     :     0.053883
  9 Cls       :     5.727047  s :     5.727047
      pz      :     3.828707  p :    11.428413
      px      :     3.738447
      py      :     3.861260
      dz2     :     0.006045  d :     0.049776
      dxz     :     0.029283
      dyz     :     0.002999
      dx2y2   :     0.007988
      dxy     :     0.003462
      f0      :     0.000159  f :     0.002670
      f+1     :     0.000923
      f-1     :     0.000075
      f+2     :     0.000853
      f-2     :     0.000282
      f+3     :     0.000186
      f-3     :     0.000192
 10 Cls       :     5.697995  s :     5.697995
      pz      :     3.806910  p :    11.372620
      px      :     3.832098
      py      :     3.733612
      dz2     :     0.009031  d :     0.054103
      dxz     :     0.001219
      dyz     :     0.007863
      dx2y2   :     0.024921
      dxy     :     0.011069
      f0      :     0.000331  f :     0.003660
      f+1     :     0.000060
      f-1     :     0.000672
      f+2     :     0.000513
      f-2     :     0.000183
      f+3     :     0.000940
      f-3     :     0.000959
 11 Cls       :     5.744263  s :     5.744263
      pz      :     3.866439  p :    11.411082
      px      :     3.789301
      py      :     3.755342
      dz2     :     0.005101  d :     0.036939
      dxz     :     0.005230
      dyz     :     0.003666
      dx2y2   :     0.003614
      dxy     :     0.019328
      f0      :     0.000256  f :     0.002226
      f+1     :     0.000193
      f-1     :     0.000145
      f+2     :     0.000041
      f-2     :     0.000475
      f+3     :     0.000357
      f-3     :     0.000758


                      *****************************
                      * MAYER POPULATION ANALYSIS *
                      *****************************

  NA   - Mulliken gross atomic population
  ZA   - Total nuclear charge
  QA   - Mulliken gross atomic charge
  VA   - Mayer's total valence
  BVA  - Mayer's bonded valence
  FA   - Mayer's free valence

  ATOM       NA         ZA         QA         VA         BVA        FA
  0 C      6.2968     6.0000    -0.2968     3.7030     3.7030    -0.0000
  1 N      7.2107     7.0000    -0.2107     3.5539     3.5539     0.0000
  2 H      0.7724     1.0000     0.2276     1.0093     1.0093     0.0000
  3 H      0.6882     1.0000     0.3118     0.9258     0.9258    -0.0000
  4 H      0.7164     1.0000     0.2836     0.9148     0.9148     0.0000
  5 H      0.7961     1.0000     0.2039     0.9768     0.9768    -0.0000
  6 H      0.8166     1.0000     0.1834     0.9996     0.9996    -0.0000
  7 H      0.8445     1.0000     0.1555     0.9662     0.9662    -0.0000
  8 Pb    21.2138    22.0000     0.7862     2.0114     2.0114    -0.0000
  9 Cl    17.6052    17.0000    -0.6052     0.6650     0.6650    -0.0000
 10 Cl    17.5209    17.0000    -0.5209     0.8079     0.8079     0.0000
 11 Cl    17.5185    17.0000    -0.5185     0.8129     0.8129     0.0000

  Mayer bond orders larger than 0.1
B(  0-C ,  1-N ) :   0.8748 B(  0-C ,  5-H ) :   0.9507 B(  0-C ,  6-H ) :   0.9565 
B(  0-C ,  7-H ) :   0.9608 B(  1-N ,  2-H ) :   0.9259 B(  1-N ,  3-H ) :   0.8523 
B(  1-N ,  4-H ) :   0.8760 B(  8-Pb,  9-Cl) :   0.4788 B(  8-Pb, 10-Cl) :   0.7260 
B(  8-Pb, 11-Cl) :   0.7836 

-------
TIMINGS
-------

Total SCF time: 0 days 0 hours 5 min 38 sec 

Total time                  ....     338.551 sec
Sum of individual times     ....     318.388 sec  ( 94.0%)

Fock matrix formation       ....     312.522 sec  ( 92.3%)
  Coulomb formation         ....     242.097 sec  ( 77.5% of F)
  Split-RI-J                ....      20.542 sec  (  6.6% of F)
  Chain of spheres X        ....     240.737 sec  ( 77.0% of F)
  COS-X 1 center corr.      ....       0.000 sec  (  0.0% of F)
  XC integration            ....      70.480 sec  ( 22.6% of F)
    Basis function eval.    ....      33.066 sec  ( 46.9% of XC)
    Density eval.           ....      13.348 sec  ( 18.9% of XC)
    XC-Functional eval.     ....       3.480 sec  (  4.9% of XC)
    XC-Potential eval.      ....      19.458 sec  ( 27.6% of XC)
Diagonalization             ....       0.603 sec  (  0.2%)
Density matrix formation    ....       0.043 sec  (  0.0%)
Population analysis         ....       0.069 sec  (  0.0%)
Initial guess               ....       0.113 sec  (  0.0%)
Orbital Transformation      ....       0.000 sec  (  0.0%)
Orbital Orthonormalization  ....       0.111 sec  (  0.0%)
DIIS solution               ....       0.149 sec  (  0.0%)
SOSCF solution              ....       0.080 sec  (  0.0%)
Grid generation             ....       4.809 sec  (  1.4%)

------------------------------------------------------------------------------
                              ORCA MP2 CALCULATION
------------------------------------------------------------------------------


----------------------
RI-MP2 ENERGY+GRADIENT
----------------------
Dimension of the basis                    ...  259
Memory devoted to MP2                     ... 1000 MB   
Data format for buffers                   ... DOUBLE
Compression type for matrix containers    ... UNCOMPRESSED
Overall scaling of the MP2 energy         ...   2.700e-01 Eh
Calculating two index integrals           ... done (    0.011 sec)
Cholesky decomposition of the V-matrix    ... done
Cholesky decomposition of V**-1           ... done (    0.020 sec)

-----------------
RI-TRANSFORMATION (AUX index driven)
-----------------

Dimension of the orbital-basis         ... 259
Dimension of the aux-basis             ... 493
Transformation of internal MOs         ...    0-  45
Transformation of internal/external MOs...    0-  45 to   46- 258
Number Format for Storage              ... Double (8 Byte)
Integral mode                          ... Direct

First Phase: integral generation and transformation of MO indices
  Aux angular momentum 0               ... done (    0.448 sec)
  Aux angular momentum 1               ... done (    0.324 sec)
  Aux angular momentum 2               ... done (    0.361 sec)
  Aux angular momentum 3               ... done (    0.203 sec)
  Aux angular momentum 4               ... done (    0.176 sec)
Closing buffer VIJ ( 0.00 GB; CompressionRatio= 1.95)
Closing buffer VIA ( 0.04 GB; CompressionRatio= 1.00)
  Phase 1 completed in     1.611 sec
Second Phase: sorting and transformation of aux index

IJ-Transformation
Memory available                       ... 990 MB 
Max. # MO pairs treated in a batch     ... 46    
# of internal orbitals                 ... 46
# batches for internal orbitals        ... 1
Closing buffer IJV ( 0.00 GB; CompressionRatio= 1.00)
(ij|v) transformation done in     0.086 sec

IA-Transformation
Memory available                       ... 990 MB 
Max. # MO pairs treated in a batch     ... 46    
# of internal orbitals                 ... 46
# batches for internal orbitals        ... 1
Closing buffer IAV ( 0.04 GB; CompressionRatio= 1.00)
(ia|v) transformation done in     0.339 sec

  Phase 2 completed in     0.444 sec
RI-Integral transformation completed in     2.056 sec
Opening buffers                              ... done

Starting loop over batches of integrals:

Operator 0  - window                       ... (  0- 45)x( 46-258)
Operator 0  - Memory available             ...  1000 MB
Operator 0  - Memory needed per MO         ...   1.6 MB
Operator 0  - Number of orbitals per batch ... 46
Operator 0  - Number of batches            ... 1

OPERATOR  0   PASS   0:  MOs     0 ...   45
  Reading integrals       ... ok
  Internal MO   2
  Internal MO   5
  Internal MO   8
  Internal MO  11
  Internal MO  14
  Internal MO  17
  Internal MO  20
  Internal MO  23
  Internal MO  26
  Internal MO  29
  Internal MO  32
  Internal MO  35
  Internal MO  38
  Internal MO  41
  Internal MO  44
Closing buffer GIPV ( 0.04 GB; CompressionRatio= 1.00)
Time spent in pair loops =    39.769 sec

-----------------------------------------------
 RI-MP2 CORRELATION ENERGY:     -0.580236634 Eh
-----------------------------------------------


---------------------
MP2 DENSITY FORMATION
---------------------

Completing the external part of the density      ... done
Storing the unrelaxed density                    ... done

Calculating the xc-kernel                        ... done
Calculating G(D)                                 ... done
Completing the Lagrangian                        ... done
Solving the Z-vector equations                   ... 

------------------------------------------------------------------------------
                           ORCA CP-SCF CALCULATION
------------------------------------------------------------------------------

Input orbitals are from        ... PbMACl3_mp2_md_23.orca.gbw
Input Perturbation             ... PbMACl3_mp2_md_23.orca.pin.tmp
Wavefunction output            ... PbMACl3_mp2_md_23.orca.pout.tmp
Perturbation mode              ... Real perturbation
Solver                         ... DIIS
   MaxDIIS                     ... 20
   Levelshift                  ...    3.000e-01 Eh
Max. number of iterations      ... 128
Convergence tolerance          ... 1.000e-08
Integral handling              ... Direct
COSX GridX                     ... 1
Number of perturbations        ... 1
Number of operators            ... 1
Orbital ranges used for CP-SCF:
 Operator 0:  Orbitals   0... 45  to  46...258
DFT calculation                         ... on
Exchange functional (SCF)               ... B88
Exchange functional (CP-SCF)            ... B88
   X-Alpha parameter    XAlpha (SCF)    ...  0.666667
   X-Alpha parameter    XAlpha (CP-SCF) ...  0.666667
   Becke's b parameter  XBeta (SCF)     ...  0.004200
   Becke's b parameter  XBeta (CP-SCF)  ...  0.004200
Correlation functional (SCF)            ... LYP
Correlation functional (CP-SCF)         ... LYP
 LDA part of GGA corr.  LDAOpt (SCF)    ... VWN-3
 LDA part of GGA corr.  LDAOpt (CP-SCF) ... VWN-3
Hybrid DFT                              ... on
   Exchange mixing (SCF)                ...  0.530
   Exchange mixing (CP-SCF)             ...  0.530
   GGA exch. scaling(SCF)               ...  0.470
   GGA exch. scaling (CP-SCF)           ...  0.470
   GGA corr. scaling (SCF)              ...  0.730
   GGA corr. scaling (CP-SCF)           ...  0.730
The RIJCOSX approximation is active
Variables per vector in CP-SCF ... 9798
Number of vectors sought       ... 1
Calculating the xc-kernel      ... done

Solving the CP-SCF equations by a DIIS algorithm

-----------------
CP-SCF ITERATIONS
-----------------
  Iteration   0: MaxR=  0.085489768
  Iteration   1: MaxR=  0.037473015
  Iteration   2: MaxR=  0.012887773
  Iteration   3: MaxR=  0.006178928
  Iteration   4: MaxR=  0.003531897
  Iteration   5: MaxR=  0.001576355
  Iteration   6: MaxR=  0.000647878
  Iteration   7: MaxR=  0.000198314
  Iteration   8: MaxR=  0.000080782
  Iteration   9: MaxR=  0.000031009
  Iteration  10: MaxR=  0.000014541
  Iteration  11: MaxR=  0.000005475
  Iteration  12: MaxR=  0.000002205
  Iteration  13: MaxR=  0.000000867
  Iteration  14: MaxR=  0.000000329
  Iteration  15: MaxR=  0.000000124
  Iteration  16: MaxR=  0.000000044
  Iteration  17: MaxR=  0.000000021
  Iteration  18: MaxR=  0.000000009
                              *** THE CP-SCF HAS CONVERGED *** 
done
Finalizing the relaxed density                   ... done
Transforming P to the AO basis                   ... done
Storing the relaxed density                      ... done

------------------------------------
ENERGY WEIGHTED DENSITY FINALIZATION
------------------------------------

Gathering the parts of the W-matrix              ... done
Forming the Z-density                            ... done
Transforming Z to the AO basis                   ... done
Calculating G(Z)                                 ... done
Finalizing the W-matrix                          ... done
Transforming W to the AO basis and storing       ... done
Entering the RIJONX and RIJCOSX sections
Starting the three-index derivative integrals:
Operator 0  - Memory available             ...  1000 MB
Operator 0  - Memory needed per MO         ...   1.0 MB
Operator 0  - Number of orbitals per batch ... 46
Operator 0  - Number of batches            ... 1

OPERATOR  0   PASS   0:  MOs     0 ...   45

----------------------------------
MP2 DERIVATIVE INTEGRAL GENERATION
----------------------------------


Input Correlated Electron Density   ... PbMACl3_mp2_md_23.orca.pmp2re
Input Energy Weighted Density       ... PbMACl3_mp2_md_23.orca.wmp2.tmp
Input SCF Electron Density          ... PbMACl3_mp2_md_23.orca.scfp.tmp

One-Electron Terms    ...
  ECP gradient                                           ... One-Electron Terms done

-----------------------------------------------------------
MP2 COSX Grid Generation
-----------------------------------------------------------

General Integration Accuracy     IntAcc      ...  4.340
Radial Grid Type                 RadialGrid  ... Gauss-Chebyshev
Angular Grid (max. acc.)         AngularGrid ... Lebedev-302
Angular grid pruning method      GridPruning ... 3 (G Style)
Weight generation scheme         WeightScheme... Becke
Basis function cutoff            BFCut       ...    1.0000e-11
Integration weight cutoff        WCut        ...    1.0000e-14
Grids for H and He will be reduced by one unit

# of grid points (after initial pruning)     ...  57718 (   0.0 sec)
# of grid points (after weights+screening)   ...  54335 (   0.1 sec)
nearest neighbour list constructed           ...    0.0 sec
Grid point re-assignment to atoms done       ...    0.0 sec
Grid point division into batches done        ...    0.2 sec
Reduced shell lists constructed in    1.4 sec

Total number of grid points                  ...    54335
Total number of batches                      ...      856
Average number of points per batch           ...       63
Average number of grid points per atom       ...     4528
Average number of shells per batch           ...    55.39 (54.84%)
Average number of basis functions per batch  ...   146.57 (56.59%)
Average number of large shells per batch     ...    42.26 (76.29%)
Average number of large basis fcns per batch ...   110.20 (75.18%)
Maximum spatial batch extension              ...  26.01, 33.63, 33.02 au
Average spatial batch extension              ...   2.94,  3.17,  3.35 au

Overlap Fitting                  UseSFitting ... on
Two electron COSX terms .... 
Integration Timings:
Total Time                  =    80.1 sec
Basis fcn evaluation        =     0.6 sec
Density evaluation          =     0.9 sec
Integral evaluation         =    77.0 sec
K(P) evaluation             =     0.7 sec
                          .... COSX two electron terms done
COSX two-electron contribution to the gradient
     0:     0.069217    -0.065591     0.002742
     1:    -0.042212     0.127581    -0.030846
     2:    -0.135633    -0.183992    -0.057683
     3:     0.069723    -0.043343     0.188852
     4:     0.175538    -0.005038    -0.095484
     5:    -0.125389     0.031604     0.107067
     6:    -0.123036     0.001943    -0.114967
     7:     0.108439     0.131553     0.004684
     8:     0.033392     0.001322    -0.008979
     9:     0.038771    -0.004361     0.017410
    10:    -0.011771     0.066945    -0.027604
    11:    -0.056822    -0.057886     0.014563
Exchange-correlation gradient    ... done
Dispersion correction            ... 
Entering the calculation of the dispersion correction...

Checking the input atom types...

Done
done

                *********************************************
                * UNRELAXED MP2 DENSITY POPULATION ANALYSIS *
                *********************************************

------------------------------------------------------------------------------
                           ORCA POPULATION ANALYSIS
------------------------------------------------------------------------------
Input electron density              ... PbMACl3_mp2_md_23.orca.pmp2ur
BaseName (.gbw .S,...)              ... PbMACl3_mp2_md_23.orca

                    ********************************
                    * MULLIKEN POPULATION ANALYSIS *
                    ********************************

-----------------------
MULLIKEN ATOMIC CHARGES
-----------------------
   0 C :   -0.301172
   1 N :   -0.210448
   2 H :    0.227620
   3 H :    0.311181
   4 H :    0.283328
   5 H :    0.204473
   6 H :    0.183960
   7 H :    0.156614
   8 Pb:    0.769955
   9 Cl:   -0.599435
  10 Cl:   -0.514622
  11 Cl:   -0.511455
Sum of atomic charges:   -0.0000000

--------------------------------
MULLIKEN REDUCED ORBITAL CHARGES
--------------------------------
  0 C s       :     3.255397  s :     3.255397
      pz      :     1.172327  p :     2.961860
      px      :     1.012041
      py      :     0.777492
      dz2     :     0.010927  d :     0.076087
      dxz     :     0.021109
      dyz     :     0.010139
      dx2y2   :     0.014111
      dxy     :     0.019801
      f0      :     0.000739  f :     0.007828
      f+1     :     0.001303
      f-1     :     0.000851
      f+2     :     0.000566
      f-2     :     0.000886
      f+3     :     0.001764
      f-3     :     0.001718
  1 N s       :     3.382134  s :     3.382134
      pz      :     1.284589  p :     3.760347
      px      :     1.255342
      py      :     1.220416
      dz2     :     0.008061  d :     0.064336
      dxz     :     0.016281
      dyz     :     0.013023
      dx2y2   :     0.015896
      dxy     :     0.011076
      f0      :     0.000638  f :     0.003631
      f+1     :     0.000512
      f-1     :     0.000326
      f+2     :     0.000267
      f-2     :     0.000469
      f+3     :     0.000858
      f-3     :     0.000561
  2 H s       :     0.721489  s :     0.721489
      pz      :     0.012124  p :     0.050891
      px      :     0.016837
      py      :     0.021930
  3 H s       :     0.653924  s :     0.653924
      pz      :     0.020804  p :     0.034895
      px      :     0.007363
      py      :     0.006728
  4 H s       :     0.686546  s :     0.686546
      pz      :     0.009240  p :     0.030126
      px      :     0.015938
      py      :     0.004948
  5 H s       :     0.772485  s :     0.772485
      pz      :     0.009833  p :     0.023041
      px      :     0.010043
      py      :     0.003165
  6 H s       :     0.789479  s :     0.789479
      pz      :     0.011015  p :     0.026562
      px      :     0.011997
      py      :     0.003550
  7 H s       :     0.819248  s :     0.819248
      pz      :     0.005506  p :     0.024138
      px      :     0.007802
      py      :     0.010830
  8 Pbs       :     3.894006  s :     3.894006
      pz      :     2.346886  p :     7.083199
      px      :     2.386508
      py      :     2.349804
      dz2     :     2.018622  d :    10.139802
      dxz     :     2.028132
      dyz     :     2.028515
      dx2y2   :     2.036187
      dxy     :     2.028346
      f0      :     0.011289  f :     0.113038
      f+1     :     0.014347
      f-1     :     0.011972
      f+2     :     0.018074
      f-2     :     0.014928
      f+3     :     0.021038
      f-3     :     0.021390
  9 Cls       :     5.948390  s :     5.948390
      pz      :     3.867215  p :    11.584559
      px      :     3.806369
      py      :     3.910976
      dz2     :     0.011993  d :     0.062668
      dxz     :     0.018192
      dyz     :     0.010748
      dx2y2   :     0.011526
      dxy     :     0.010208
      f0      :     0.000507  f :     0.003818
      f+1     :     0.000650
      f-1     :     0.000443
      f+2     :     0.000651
      f-2     :     0.000561
      f+3     :     0.000491
      f-3     :     0.000514
 10 Cls       :     5.941077  s :     5.941077
      pz      :     3.856584  p :    11.505513
      px      :     3.893915
      py      :     3.755014
      dz2     :     0.011160  d :     0.063888
      dxz     :     0.008890
      dyz     :     0.013468
      dx2y2   :     0.017342
      dxy     :     0.013028
      f0      :     0.000525  f :     0.004144
      f+1     :     0.000405
      f-1     :     0.000640
      f+2     :     0.000634
      f-2     :     0.000493
      f+3     :     0.000718
      f-3     :     0.000728
 11 Cls       :     5.949148  s :     5.949148
      pz      :     3.906526  p :    11.501414
      px      :     3.814475
      py      :     3.780412
      dz2     :     0.010251  d :     0.057202
      dxz     :     0.010460
      dyz     :     0.009711
      dx2y2   :     0.011003
      dxy     :     0.015778
      f0      :     0.000474  f :     0.003691
      f+1     :     0.000482
      f-1     :     0.000462
      f+2     :     0.000412
      f-2     :     0.000573
      f+3     :     0.000626
      f-3     :     0.000664


                     *******************************
                     * LOEWDIN POPULATION ANALYSIS *
                     *******************************

----------------------
LOEWDIN ATOMIC CHARGES
----------------------
   0 C :   -0.314582
   1 N :    0.150925
   2 H :    0.080983
   3 H :    0.213744
   4 H :    0.221947
   5 H :    0.155176
   6 H :    0.117489
   7 H :    0.111812
   8 Pb:   -0.219902
   9 Cl:   -0.204058
  10 Cl:   -0.124394
  11 Cl:   -0.189141

-------------------------------
LOEWDIN REDUCED ORBITAL CHARGES
-------------------------------
  0 C s       :     2.830624  s :     2.830624
      pz      :     1.148567  p :     3.119296
      px      :     1.050759
      py      :     0.919971
      dz2     :     0.040028  d :     0.320625
      dxz     :     0.073183
      dyz     :     0.041165
      dx2y2   :     0.066036
      dxy     :     0.100213
      f0      :     0.003612  f :     0.044037
      f+1     :     0.003844
      f-1     :     0.006128
      f+2     :     0.006023
      f-2     :     0.004618
      f+3     :     0.009109
      f-3     :     0.010703
  1 N s       :     2.941149  s :     2.941149
      pz      :     1.223554  p :     3.684126
      px      :     1.206368
      py      :     1.254204
      dz2     :     0.026719  d :     0.209817
      dxz     :     0.047378
      dyz     :     0.037831
      dx2y2   :     0.051951
      dxy     :     0.045938
      f0      :     0.002058  f :     0.013983
      f+1     :     0.000885
      f-1     :     0.001538
      f+2     :     0.002034
      f-2     :     0.002127
      f+3     :     0.002497
      f-3     :     0.002845
  2 H s       :     0.757342  s :     0.757342
      pz      :     0.040424  p :     0.161676
      px      :     0.055294
      py      :     0.065957
  3 H s       :     0.687393  s :     0.687393
      pz      :     0.061668  p :     0.098863
      px      :     0.018957
      py      :     0.018238
  4 H s       :     0.690540  s :     0.690540
      pz      :     0.028284  p :     0.087512
      px      :     0.044702
      py      :     0.014526
  5 H s       :     0.784225  s :     0.784225
      pz      :     0.026833  p :     0.060600
      px      :     0.025448
      py      :     0.008318
  6 H s       :     0.805099  s :     0.805099
      pz      :     0.034257  p :     0.077412
      px      :     0.031989
      py      :     0.011166
  7 H s       :     0.816199  s :     0.816199
      pz      :     0.018098  p :     0.071989
      px      :     0.025215
      py      :     0.028675
  8 Pbs       :     3.640536  s :     3.640536
      pz      :     2.476395  p :     7.578119
      px      :     2.540845
      py      :     2.560880
      dz2     :     2.101754  d :    10.720237
      dxz     :     2.146609
      dyz     :     2.128073
      dx2y2   :     2.173166
      dxy     :     2.170635
      f0      :     0.025076  f :     0.281010
      f+1     :     0.033728
      f-1     :     0.025560
      f+2     :     0.051817
      f-2     :     0.032208
      f+3     :     0.053787
      f-3     :     0.058833
  9 Cls       :     5.722757  s :     5.722757
      pz      :     3.814356  p :    11.385770
      px      :     3.724525
      py      :     3.846889
      dz2     :     0.014140  d :     0.089963
      dxz     :     0.037247
      dyz     :     0.011026
      dx2y2   :     0.016069
      dxy     :     0.011481
      f0      :     0.000579  f :     0.005567
      f+1     :     0.001355
      f-1     :     0.000478
      f+2     :     0.001274
      f-2     :     0.000700
      f+3     :     0.000587
      f-3     :     0.000594
 10 Cls       :     5.693763  s :     5.693763
      pz      :     3.792894  p :    11.330817
      px      :     3.817921
      py      :     3.720001
      dz2     :     0.016767  d :     0.093279
      dxz     :     0.009051
      dyz     :     0.015720
      dx2y2   :     0.032819
      dxy     :     0.018923
      f0      :     0.000728  f :     0.006534
      f+1     :     0.000440
      f-1     :     0.001085
      f+2     :     0.000930
      f-2     :     0.000585
      f+3     :     0.001372
      f-3     :     0.001395
 11 Cls       :     5.739799  s :     5.739799
      pz      :     3.852218  p :    11.368971
      px      :     3.775340
      py      :     3.741413
      dz2     :     0.012782  d :     0.075385
      dxz     :     0.012923
      dyz     :     0.011295
      dx2y2   :     0.011305
      dxy     :     0.027080
      f0      :     0.000640  f :     0.004986
      f+1     :     0.000584
      f-1     :     0.000528
      f+2     :     0.000428
      f-2     :     0.000872
      f+3     :     0.000767
      f-3     :     0.001167


                      *****************************
                      * MAYER POPULATION ANALYSIS *
                      *****************************

  NA   - Mulliken gross atomic population
  ZA   - Total nuclear charge
  QA   - Mulliken gross atomic charge
  VA   - Mayer's total valence
  BVA  - Mayer's bonded valence
  FA   - Mayer's free valence

  ATOM       NA         ZA         QA         VA         BVA        FA
  0 C      6.3012     6.0000    -0.3012     3.7532     3.6386     0.1146
  1 N      7.2104     7.0000    -0.2104     3.6199     3.4889     0.1310
  2 H      0.7724     1.0000     0.2276     1.0116     0.9952     0.0164
  3 H      0.6888     1.0000     0.3112     0.9280     0.9085     0.0195
  4 H      0.7167     1.0000     0.2833     0.9169     0.8969     0.0200
  5 H      0.7955     1.0000     0.2045     0.9792     0.9591     0.0201
  6 H      0.8160     1.0000     0.1840     1.0021     0.9834     0.0187
  7 H      0.8434     1.0000     0.1566     0.9688     0.9515     0.0174
  8 Pb    21.2300    22.0000     0.7700     2.3253     1.9503     0.3751
  9 Cl    17.5994    17.0000    -0.5994     0.9081     0.6456     0.2625
 10 Cl    17.5146    17.0000    -0.5146     1.0441     0.7831     0.2611
 11 Cl    17.5115    17.0000    -0.5115     1.0492     0.7859     0.2632

  Mayer bond orders larger than 0.1
B(  0-C ,  1-N ) :   0.8554 B(  0-C ,  5-H ) :   0.9343 B(  0-C ,  6-H ) :   0.9419 
B(  0-C ,  7-H ) :   0.9468 B(  1-N ,  2-H ) :   0.9141 B(  1-N ,  3-H ) :   0.8371 
B(  1-N ,  4-H ) :   0.8595 B(  8-Pb,  9-Cl) :   0.4647 B(  8-Pb, 10-Cl) :   0.7043 
B(  8-Pb, 11-Cl) :   0.7586 


                *******************************************
                * RELAXED MP2 DENSITY POPULATION ANALYSIS *
                *******************************************

------------------------------------------------------------------------------
                           ORCA POPULATION ANALYSIS
------------------------------------------------------------------------------
Input electron density              ... PbMACl3_mp2_md_23.orca.pmp2re
BaseName (.gbw .S,...)              ... PbMACl3_mp2_md_23.orca

                    ********************************
                    * MULLIKEN POPULATION ANALYSIS *
                    ********************************

-----------------------
MULLIKEN ATOMIC CHARGES
-----------------------
   0 C :   -0.315901
   1 N :   -0.210344
   2 H :    0.225485
   3 H :    0.306327
   4 H :    0.280834
   5 H :    0.207011
   6 H :    0.185102
   7 H :    0.159899
   8 Pb:    0.715558
   9 Cl:   -0.574702
  10 Cl:   -0.491283
  11 Cl:   -0.487985
Sum of atomic charges:   -0.0000000

--------------------------------
MULLIKEN REDUCED ORBITAL CHARGES
--------------------------------
  0 C s       :     3.256983  s :     3.256983
      pz      :     1.176647  p :     2.979181
      px      :     1.018511
      py      :     0.784023
      dz2     :     0.010191  d :     0.072065
      dxz     :     0.019360
      dyz     :     0.010289
      dx2y2   :     0.013855
      dxy     :     0.018370
      f0      :     0.000737  f :     0.007672
      f+1     :     0.001266
      f-1     :     0.000829
      f+2     :     0.000546
      f-2     :     0.000883
      f+3     :     0.001708
      f-3     :     0.001702
  1 N s       :     3.383835  s :     3.383835
      pz      :     1.284889  p :     3.760169
      px      :     1.256272
      py      :     1.219008
      dz2     :     0.007485  d :     0.062781
      dxz     :     0.015743
      dyz     :     0.013248
      dx2y2   :     0.015745
      dxy     :     0.010560
      f0      :     0.000628  f :     0.003559
      f+1     :     0.000498
      f-1     :     0.000314
      f+2     :     0.000265
      f-2     :     0.000465
      f+3     :     0.000826
      f-3     :     0.000564
  2 H s       :     0.724070  s :     0.724070
      pz      :     0.012163  p :     0.050445
      px      :     0.016773
      py      :     0.021509
  3 H s       :     0.659156  s :     0.659156
      pz      :     0.020360  p :     0.034517
      px      :     0.007387
      py      :     0.006771
  4 H s       :     0.689416  s :     0.689416
      pz      :     0.009196  p :     0.029750
      px      :     0.015514
      py      :     0.005040
  5 H s       :     0.770297  s :     0.770297
      pz      :     0.009664  p :     0.022692
      px      :     0.009804
      py      :     0.003224
  6 H s       :     0.788664  s :     0.788664
      pz      :     0.010811  p :     0.026234
      px      :     0.011783
      py      :     0.003640
  7 H s       :     0.816304  s :     0.816304
      pz      :     0.005611  p :     0.023797
      px      :     0.007665
      py      :     0.010521
  8 Pbs       :     3.910987  s :     3.910987
      pz      :     2.354949  p :     7.123570
      px      :     2.402449
      py      :     2.366172
      dz2     :     2.018329  d :    10.138891
      dxz     :     2.026494
      dyz     :     2.029405
      dx2y2   :     2.036278
      dxy     :     2.028384
      f0      :     0.011055  f :     0.110995
      f+1     :     0.014096
      f-1     :     0.011747
      f+2     :     0.017667
      f-2     :     0.014726
      f+3     :     0.020747
      f-3     :     0.020956
  9 Cls       :     5.948914  s :     5.948914
      pz      :     3.857831  p :    11.558673
      px      :     3.796985
      py      :     3.903857
      dz2     :     0.012140  d :     0.063281
      dxz     :     0.018409
      dyz     :     0.010782
      dx2y2   :     0.011651
      dxy     :     0.010300
      f0      :     0.000510  f :     0.003834
      f+1     :     0.000652
      f-1     :     0.000445
      f+2     :     0.000651
      f-2     :     0.000566
      f+3     :     0.000492
      f-3     :     0.000518
 10 Cls       :     5.941499  s :     5.941499
      pz      :     3.847385  p :    11.481627
      px      :     3.885475
      py      :     3.748766
      dz2     :     0.011232  d :     0.064009
      dxz     :     0.008893
      dyz     :     0.013298
      dx2y2   :     0.017411
      dxy     :     0.013175
      f0      :     0.000525  f :     0.004149
      f+1     :     0.000406
      f-1     :     0.000641
      f+2     :     0.000633
      f-2     :     0.000494
      f+3     :     0.000720
      f-3     :     0.000729
 11 Cls       :     5.949977  s :     5.949977
      pz      :     3.897318  p :    11.477262
      px      :     3.807600
      py      :     3.772343
      dz2     :     0.010177  d :     0.057046
      dxz     :     0.010532
      dyz     :     0.009729
      dx2y2   :     0.011032
      dxy     :     0.015577
      f0      :     0.000475  f :     0.003700
      f+1     :     0.000483
      f-1     :     0.000462
      f+2     :     0.000413
      f-2     :     0.000575
      f+3     :     0.000629
      f-3     :     0.000664


                     *******************************
                     * LOEWDIN POPULATION ANALYSIS *
                     *******************************

----------------------
LOEWDIN ATOMIC CHARGES
----------------------
   0 C :   -0.323882
   1 N :    0.146932
   2 H :    0.080256
   3 H :    0.212071
   4 H :    0.221999
   5 H :    0.157275
   6 H :    0.118704
   7 H :    0.113581
   8 Pb:   -0.249104
   9 Cl:   -0.190859
  10 Cl:   -0.112568
  11 Cl:   -0.174403

-------------------------------
LOEWDIN REDUCED ORBITAL CHARGES
-------------------------------
  0 C s       :     2.832346  s :     2.832346
      pz      :     1.153043  p :     3.131735
      px      :     1.054325
      py      :     0.924366
      dz2     :     0.039091  d :     0.316024
      dxz     :     0.071545
      dyz     :     0.041225
      dx2y2   :     0.065739
      dxy     :     0.098423
      f0      :     0.003600  f :     0.043778
      f+1     :     0.003797
      f-1     :     0.006091
      f+2     :     0.006020
      f-2     :     0.004589
      f+3     :     0.009022
      f-3     :     0.010659
  1 N s       :     2.942827  s :     2.942827
      pz      :     1.225574  p :     3.686760
      px      :     1.207463
      py      :     1.253723
      dz2     :     0.026461  d :     0.209472
      dxz     :     0.046954
      dyz     :     0.038248
      dx2y2   :     0.052049
      dxy     :     0.045761
      f0      :     0.002061  f :     0.014009
      f+1     :     0.000880
      f-1     :     0.001547
      f+2     :     0.002051
      f-2     :     0.002117
      f+3     :     0.002496
      f-3     :     0.002858
  2 H s       :     0.757840  s :     0.757840
      pz      :     0.040464  p :     0.161904
      px      :     0.055547
      py      :     0.065894
  3 H s       :     0.689051  s :     0.689051
      pz      :     0.061522  p :     0.098879
      px      :     0.018991
      py      :     0.018365
  4 H s       :     0.690555  s :     0.690555
      pz      :     0.028336  p :     0.087446
      px      :     0.044415
      py      :     0.014694
  5 H s       :     0.781993  s :     0.781993
      pz      :     0.026869  p :     0.060732
      px      :     0.025386
      py      :     0.008477
  6 H s       :     0.803675  s :     0.803675
      pz      :     0.034260  p :     0.077621
      px      :     0.031967
      py      :     0.011394
  7 H s       :     0.814178  s :     0.814178
      pz      :     0.018329  p :     0.072241
      px      :     0.025300
      py      :     0.028612
  8 Pbs       :     3.656131  s :     3.656131
      pz      :     2.479091  p :     7.600677
      px      :     2.550977
      py      :     2.570608
      dz2     :     2.100802  d :    10.713870
      dxz     :     2.143754
      dyz     :     2.127714
      dx2y2   :     2.172406
      dxy     :     2.169194
      f0      :     0.024580  f :     0.278426
      f+1     :     0.033476
      f-1     :     0.025119
      f+2     :     0.051293
      f-2     :     0.031861
      f+3     :     0.053546
      f-3     :     0.058550
  9 Cls       :     5.726013  s :     5.726013
      pz      :     3.807107  p :    11.367749
      px      :     3.718746
      py      :     3.841897
      dz2     :     0.014250  d :     0.091452
      dxz     :     0.037946
      dyz     :     0.011123
      dx2y2   :     0.016488
      dxy     :     0.011644
      f0      :     0.000589  f :     0.005645
      f+1     :     0.001362
      f-1     :     0.000481
      f+2     :     0.001303
      f-2     :     0.000713
      f+3     :     0.000596
      f-3     :     0.000600
 10 Cls       :     5.697023  s :     5.697023
      pz      :     3.785578  p :    11.313987
      px      :     3.811862
      py      :     3.716548
      dz2     :     0.016970  d :     0.094900
      dxz     :     0.009096
      dyz     :     0.015999
      dx2y2   :     0.033571
      dxy     :     0.019265
      f0      :     0.000744  f :     0.006658
      f+1     :     0.000440
      f-1     :     0.001095
      f+2     :     0.000957
      f-2     :     0.000594
      f+3     :     0.001392
      f-3     :     0.001434
 11 Cls       :     5.743023  s :     5.743023
      pz      :     3.844304  p :    11.349931
      px      :     3.770511
      py      :     3.735115
      dz2     :     0.012939  d :     0.076375
      dxz     :     0.013022
      dyz     :     0.011392
      dx2y2   :     0.011414
      dxy     :     0.027607
      f0      :     0.000646  f :     0.005075
      f+1     :     0.000595
      f-1     :     0.000537
      f+2     :     0.000429
      f-2     :     0.000885
      f+3     :     0.000789
      f-3     :     0.001194


                      *****************************
                      * MAYER POPULATION ANALYSIS *
                      *****************************

  NA   - Mulliken gross atomic population
  ZA   - Total nuclear charge
  QA   - Mulliken gross atomic charge
  VA   - Mayer's total valence
  BVA  - Mayer's bonded valence
  FA   - Mayer's free valence

  ATOM       NA         ZA         QA         VA         BVA        FA
  0 C      6.3159     6.0000    -0.3159     3.7498     3.6356     0.1142
  1 N      7.2103     7.0000    -0.2103     3.6171     3.4863     0.1308
  2 H      0.7745     1.0000     0.2255     1.0180     1.0018     0.0162
  3 H      0.6937     1.0000     0.3063     0.9344     0.9151     0.0193
  4 H      0.7192     1.0000     0.2808     0.9188     0.8989     0.0199
  5 H      0.7930     1.0000     0.2070     0.9811     0.9611     0.0200
  6 H      0.8149     1.0000     0.1851     1.0062     0.9875     0.0186
  7 H      0.8401     1.0000     0.1599     0.9684     0.9511     0.0173
  8 Pb    21.2844    22.0000     0.7156     2.4092     2.0413     0.3679
  9 Cl    17.5747    17.0000    -0.5747     0.9563     0.6953     0.2610
 10 Cl    17.4913    17.0000    -0.4913     1.0872     0.8278     0.2595
 11 Cl    17.4880    17.0000    -0.4880     1.0912     0.8299     0.2614

  Mayer bond orders larger than 0.1
B(  0-C ,  1-N ) :   0.8628 B(  0-C ,  5-H ) :   0.9293 B(  0-C ,  6-H ) :   0.9379 
B(  0-C ,  7-H ) :   0.9440 B(  1-N ,  2-H ) :   0.9101 B(  1-N ,  3-H ) :   0.8338 
B(  1-N ,  4-H ) :   0.8565 B(  8-Pb,  9-Cl) :   0.4850 B(  8-Pb, 10-Cl) :   0.7346 
B(  8-Pb, 11-Cl) :   0.7947 


-------
TIMINGS
-------

Total time                :  469.374 sec
Integral trafo            :    2.065 sec (  0.4%)
I/O of integrals          :    0.108 sec (  0.0%)
K(i,j) Operators          :    5.517 sec (  1.2%)
T(i,j) pair energies      :    1.030 sec (  0.2%)
V-calculation             :    0.011 sec (  0.0%)
V**(-1/2)                 :    0.020 sec (  0.0%)
Gamma(ia|P)               :    5.132 sec (  1.1%)
Gamma-Trafo               :    0.724 sec (  0.2%)
D(virtual)                :    2.341 sec (  0.5%)
D(internal)               :    3.279 sec (  0.7%)
W(virtual)                :    4.680 sec (  1.0%)
W(internal)               :   12.127 sec (  2.6%)
L(virtual)                :    4.395 sec (  0.9%)
L(internal)               :    0.214 sec (  0.0%)
G(D)                      :   12.844 sec (  2.7%)
G(Z)                      :   13.055 sec (  2.8%)
Z-Vector Solution         :  302.840 sec ( 64.5%)
Z-Vector Solution         :  302.840 sec ( 64.5%)
3-Index Derivative 
+ Separable RIJ part      :    3.821 sec (  0.8%)
2-Index Derivative 
+ Separable RIJ part      :    0.025 sec (  0.0%)
Separable Gradient (COSX) :   93.700 sec ( 20.0%)


---------------------------------------
MP2 TOTAL ENERGY:    -1669.502455566 Eh
---------------------------------------

The final MP2 gradient
  0:   0.05192405  -0.01773711  -0.03625830
  1:  -0.19431336  -0.14288490  -0.05274247
  2:   0.11878674   0.16926539   0.05136834
  3:   0.01552926  -0.00688360   0.01760737
  4:   0.03332791  -0.00302600  -0.00793781
  5:  -0.03267305   0.01084803   0.01048472
  6:   0.00185412  -0.00219491   0.02997394
  7:  -0.01552770  -0.02444065   0.00381224
  8:  -0.00280324   0.05683515   0.03329983
  9:  -0.00854151   0.01264808  -0.04624119
 10:   0.01782130  -0.05589767   0.00554451
 11:   0.01475646   0.00426672  -0.00913384

-----------------------------------
NORM OF THE MP2 GRADIENT:  0.355003
-----------------------------------

Entering the calculation of the dispersion correction...

Checking the input atom types...

Done


-------------------------------------------------------------------------------
                          DFT DISPERSION CORRECTION                            
                                                                               
                                DFTD3 V2.1  Rev 6                               
                          USING Becke-Johnson damping                          
-------------------------------------------------------------------------------
The B2PLYP functional is recognized
Active option DFTDOPT                   ...         4   

molecular C6(AA) [au] = 4868.065559 


            DFT-D V3
 parameters
 s6 scaling factor         :     0.6400 
 a1 scaling factor         :     0.3065 
 s8 scaling factor         :     0.9147 
 a2 scaling factor         :     5.0570 
 ad hoc parameters k1-k3   :    16.0000     1.3333    -4.0000 

 Edisp/kcal,au: -8.548771594744  -0.013623333250 
 E6   /kcal   :  -3.869152580 
 E8   /kcal   :  -4.679619015 
 % E8         :  54.740250838 

-------------------------   ----------------
Dispersion correction           -0.013623333
-------------------------   ----------------


-------------------------   --------------------
FINAL SINGLE POINT ENERGY     -1669.516078898768
-------------------------   --------------------


                            ***************************************
                            *     ORCA property calculations      *
                            ***************************************


  WARNING: The energy has been calculated at the MP2 level but the densities
           used in the property calculations are still SCF densities
           MP2 response densities have not been calculated 
           use %mp2 Density relaxed end
           or  %mp2 Density unrelaxed end

                                    ---------------------
                                    Active property flags
                                    ---------------------
   (+) Dipole Moment


------------------------------------------------------------------------------
                       ORCA ELECTRIC PROPERTIES CALCULATION
------------------------------------------------------------------------------

Dipole Moment Calculation                       ... on
Quadrupole Moment Calculation                   ... off
Polarizability Calculation                      ... off
GBWName                                         ... PbMACl3_mp2_md_23.orca.gbw
Electron density file                           ... PbMACl3_mp2_md_23.orca.scfp.tmp

-------------
DIPOLE MOMENT
-------------
                                X             Y             Z
Electronic contribution:    -51.32684     -37.25390     -25.74372
Nuclear contribution   :     56.39271      38.98155      24.79244
                        -----------------------------------------
Total Dipole Moment    :      5.06586       1.72765      -0.95128
                        -----------------------------------------
Magnitude (a.u.)       :      5.43624
Magnitude (Debye)      :     13.81782


                         *** MP2 UNRELAXED DENSITY ***

------------------------------------------------------------------------------
                       ORCA ELECTRIC PROPERTIES CALCULATION
------------------------------------------------------------------------------

Dipole Moment Calculation                       ... on
Quadrupole Moment Calculation                   ... off
Polarizability Calculation                      ... off
GBWName                                         ... PbMACl3_mp2_md_23.orca.gbw
Electron density file                           ... PbMACl3_mp2_md_23.orca.pmp2ur

-------------
DIPOLE MOMENT
-------------
                                X             Y             Z
Electronic contribution:    -51.34383     -37.26186     -25.73792
Nuclear contribution   :     56.39271      38.98155      24.79244
                        -----------------------------------------
Total Dipole Moment    :      5.04888       1.71969      -0.94548
                        -----------------------------------------
Magnitude (a.u.)       :      5.41686
Magnitude (Debye)      :     13.76858


                           *** MP2 RELAXED DENSITY ***

------------------------------------------------------------------------------
                       ORCA ELECTRIC PROPERTIES CALCULATION
------------------------------------------------------------------------------

Dipole Moment Calculation                       ... on
Quadrupole Moment Calculation                   ... off
Polarizability Calculation                      ... off
GBWName                                         ... PbMACl3_mp2_md_23.orca.gbw
Electron density file                           ... PbMACl3_mp2_md_23.orca.pmp2re

-------------
DIPOLE MOMENT
-------------
                                X             Y             Z
Electronic contribution:    -51.39900     -37.30812     -25.74823
Nuclear contribution   :     56.39271      38.98155      24.79244
                        -----------------------------------------
Total Dipole Moment    :      4.99371       1.67343      -0.95579
                        -----------------------------------------
Magnitude (a.u.)       :      5.35266
Magnitude (Debye)      :     13.60539


Timings for individual modules:

Sum of individual times         ...      808.800 sec (=  13.480 min)
GTO integral calculation        ...        0.566 sec (=   0.009 min)   0.1 %
SCF iterations                  ...      338.706 sec (=   5.645 min)  41.9 %
MP2 module                      ...      469.528 sec (=   7.825 min)  58.1 %
                             ****ORCA TERMINATED NORMALLY****
TOTAL RUN TIME: 0 days 0 hours 13 minutes 29 seconds 287 msec
