
                                 *****************
                                 * O   R   C   A *
                                 *****************

           --- An Ab Initio, DFT and Semiempirical electronic structure package ---

                  #######################################################
                  #                        -***-                        #
                  #  Department of molecular theory and spectroscopy    #
                  #              Directorship: Frank Neese              #
                  # Max Planck Institute for Chemical Energy Conversion #
                  #                  D-45470 Muelheim/Ruhr              #
                  #                       Germany                       #
                  #                                                     #
                  #                  All rights reserved                #
                  #                        -***-                        #
                  #######################################################


                         Program Version 3.0.3 - RELEASE   -


 With contributions from (in alphabetic order):
   Ute Becker             : Parallelization
   Dmytro Bykov           : SCF Hessian
   Dmitry Ganyushin       : Spin-Orbit,Spin-Spin,Magnetic field MRCI
   Andreas Hansen         : Spin unrestricted coupled pair/coupled cluster methods
   Dimitrios Liakos       : Extrapolation schemes; parallel MDCI
   Robert Izsak           : Overlap fitted RIJCOSX, COSX-SCS-MP3
   Christian Kollmar      : KDIIS, OOCD, Brueckner-CCSD(T), CCSD density
   Simone Kossmann        : Meta GGA functionals, TD-DFT gradient, OOMP2, MP2 Hessian
   Taras Petrenko         : DFT Hessian,TD-DFT gradient, ASA and ECA modules, normal mode analysis, Resonance Raman, ABS, FL, XAS/XES, NRVS
   Christoph Reimann      : Effective Core Potentials
   Michael Roemelt        : Restricted open shell CIS
   Christoph Riplinger    : Improved optimizer, TS searches, QM/MM, DLPNO-CCSD
   Barbara Sandhoefer     : DKH picture change effects
   Igor Schapiro          : Molecular dynamics
   Kantharuban Sivalingam : CASSCF convergence, NEVPT2
   Boris Wezisla          : Elementary symmetry handling
   Frank Wennmohs         : Technical directorship


 We gratefully acknowledge several colleagues who have allowed us to
 interface, adapt or use parts of their codes:
   Stefan Grimme, W. Hujo, H. Kruse, T. Risthaus : VdW corrections, initial TS optimization,
                                                   DFT functionals, gCP
   Ed Valeev                                     : LibInt (2-el integral package), F12 methods
   Garnet Chan, S. Sharma, R. Olivares           : DMRG
   Ulf Ekstrom                                   : XCFun DFT Library
   Mihaly Kallay                                 : mrcc  (arbitrary order and MRCC methods)
   Andreas Klamt, Michael Diedenhofen            : otool_cosmo (COSMO solvation model)
   Frank Weinhold                                : gennbo (NPA and NBO analysis)
   Christopher J. Cramer and Donald G. Truhlar   : smd solvation model


 Your calculation uses the libint2 library for the computation of 2-el integrals
 For citations please refer to: http://libint.valeyev.net

 This ORCA versions uses:
   CBLAS   interface :  Fast vector & matrix operations
   LAPACKE interface :  Fast linear algebra routines
   SCALAPACK package :  Parallel linear algebra routines


Your calculation utilizes the basis: Ahlrichs-TZV
Cite in your paper:
H - Kr: A. Schaefer, H. Horn and R. Ahlrichs, J. Chem. Phys. 97, 2571 (1992).

The def2-TZV basis will be loaded
Cite in your paper:
 	F. Weigend, R. Ahlrichs, Phys. Chem. Chem. Phys. 2005, 7, 3297.

Your calculation utilizes the atom-pairwise dispersion correction
with the Becke-Johnson damping scheme (D3BJ)
Cite in your paper:
S.Grimme, S.Ehrlich, L.Goerigk, J Comput Chem, (2011), 32, 1456–1465 
S.Grimme, J.Antony, S.Ehrlich and H.Krieg, J.Chem.Phys., 132, (2010), 154104 
   

================================================================================
                                        WARNINGS
                       Please study these warnings very carefully!
================================================================================

WARNING: The RI method has been chosen with no auxiliary basis (AUX or GTOAUX in BASIS block)
        Standard TZV/J expansion basis used (GTOAUX=TZV_J)

Now building the actual basis set
cite the ECPs for Pb [SD(60,MDF)] as follows:
  B. Metz, H. Stoll, M. Dolg, J. Chem. Phys. 113, 2563 (2000).

ECP parameters for Pb [SD(60,MDF)] have been obtained from:
  pseudopotential library of the Stuttgart/Cologne group
  http://www.theochem.uni-stuttgart.de/pseudopotentials/

cite the ECP basis sets for Pb [DEF2-TZVP] as follows:
  F. Weigend, R. Ahlrichs; Phys. Chem. Chem. Phys. 7, 3297(2005).

ECP basis sets for Pb [DEF2-TZVP] have been obtained from:
  Turbomole basis set library
  ftp://ftp.chemie.uni-karlsruhe.de/pub/basen/



INFO   : the flag for use of LIBINT has been found!

================================================================================
                                       INPUT FILE
================================================================================
NAME = PbMACl3_mp2_md2_19.orca
|  1> ! RIJCOSX RI-B2PLYP D3BJ def2-TZVP ECP{def2-TZVP} TIGHTSCF Grid5 FinalGrid6 SlowConv MORead
|  2> %method
|  3>  RunTyp Gradient
|  4>  end
|  5> %maxcore 1000
|  6> %moinp "previous.gbw"
|  7> *xyz 0 1
|  8> C -0.394281 0.276013 -0.426662 
|  9> N -1.165380 -0.685592 -1.253010 
| 10> H 0.248796 -0.278576 0.260517 
| 11> H -1.090820 0.897444 0.140826 
| 12> H 0.215705 0.904875 -1.079130 
| 13> H -1.783150 -1.324970 -0.698370 
| 14> H -0.582260 -1.326300 -1.835140 
| 15> H -1.813140 -0.240924 -1.938260 
| 16> Pb -2.673220 -2.425720 -3.245070 
| 17> Cl -0.432576 -3.212520 -2.524200 
| 18> Cl -2.553140 0.039011 -3.773850 
| 19> Cl -3.854520 -2.272120 -1.031670 
| 20> *
| 21> 
| 22>                          ****END OF INPUT****
================================================================================

                     *******************************
                     * Energy+Gradient Calculation *
                     *******************************

---------------------------------
CARTESIAN COORDINATES (ANGSTROEM)
---------------------------------
  C     -0.394281    0.276013   -0.426662
  N     -1.165380   -0.685592   -1.253010
  H      0.248796   -0.278576    0.260517
  H     -1.090820    0.897444    0.140826
  H      0.215705    0.904875   -1.079130
  H     -1.783150   -1.324970   -0.698370
  H     -0.582260   -1.326300   -1.835140
  H     -1.813140   -0.240924   -1.938260
  Pb    -2.673220   -2.425720   -3.245070
  Cl    -0.432576   -3.212520   -2.524200
  Cl    -2.553140    0.039011   -3.773850
  Cl    -3.854520   -2.272120   -1.031670

----------------------------
CARTESIAN COORDINATES (A.U.)
----------------------------
  NO LB      ZA    FRAG    MASS        X           Y           Z
   0 C     6.0000    0    12.011         -0.745083109808605          0.521588979402006         -0.806274331751109
   1 N     7.0000    0    14.007         -2.202249041949148         -1.295581119607339         -2.367845743064668
   2 H     1.0000    0     1.008          0.470156303215072         -0.526432347483247          0.492305783230763
   3 H     1.0000    0     1.008         -2.061351061403979          1.695923380530824          0.266122572535594
   4 H     1.0000    0     1.008          0.407623375717484          1.709965935431992         -2.039260162898440
   5 H     1.0000    0     1.008         -3.369665155701680         -2.503830435661641         -1.319728040146585
   6 H     1.0000    0     1.008         -1.100311938736988         -2.506343771419756         -3.467912017404246
   7 H     1.0000    0     1.008         -3.426338042457978         -0.455280379088844         -3.662780576334205
   8 Pb   22.0000*   0   207.200  -5.051653695720969  -4.583946477575458  -6.132293585403836
   9 Cl   17.0000    0    35.453         -0.817450172107119         -6.070782999744700         -4.770046707244023
  10 Cl   17.0000    0    35.453         -4.824735381559704          0.073720106210402         -7.131542970498716
  11 Cl   17.0000    0    35.453         -7.283987177722143         -4.293684543405154         -1.949573760582538
* core charge reduced due to ECP

--------------------------------
INTERNAL COORDINATES (ANGSTROEM)
--------------------------------
 C      0   0   0   0.000000     0.000     0.000
 N      1   0   0   1.483957     0.000     0.000
 H      1   2   0   1.092397   109.099     0.000
 H      1   2   3   1.092422   109.061   240.173
 H      1   2   3   1.092367   109.305   120.114
 H      2   1   3   1.047888   114.015    60.210
 H      2   1   3   1.043749   114.711   299.789
 H      2   1   3   1.042540   114.361   179.708
 Pb     8   2   1   2.687159    99.889   174.397
 Cl     7   2   1   2.013712   143.839   141.825
 Cl     8   2   1   1.998838   153.299   126.678
 Cl     6   2   1   2.301903   134.823   144.575

---------------------------
INTERNAL COORDINATES (A.U.)
---------------------------
 C      0   0   0   0.000000     0.000     0.000
 N      1   0   0   2.804273     0.000     0.000
 H      1   2   0   2.064332   109.099     0.000
 H      1   2   3   2.064378   109.061   240.173
 H      1   2   3   2.064274   109.305   120.114
 H      2   1   3   1.980222   114.015    60.210
 H      2   1   3   1.972399   114.711   299.789
 H      2   1   3   1.970116   114.361   179.708
 Pb     8   2   1   5.077995    99.889   174.397
 Cl     7   2   1   3.805364   143.839   141.825
 Cl     8   2   1   3.777257   153.299   126.678
 Cl     6   2   1   4.349966   134.823   144.575

---------------------
BASIS SET INFORMATION
---------------------
There are 5 groups of distinct atoms

 Group   1 Type C   : 11s6p2d1f contracted to 5s3p2d1f pattern {62111/411/11/1}
 Group   2 Type N   : 11s6p2d1f contracted to 5s3p2d1f pattern {62111/411/11/1}
 Group   3 Type H   : 5s1p contracted to 3s1p pattern {311/1}
 Group   4 Type Pb  : 10s9p8d2f contracted to 6s5p3d2f pattern {421111/33111/611/11}
 Group   5 Type Cl  : 14s9p3d1f contracted to 5s5p2d1f pattern {73211/51111/21/1}

Atom   0C    basis set group =>   1
Atom   1N    basis set group =>   2
Atom   2H    basis set group =>   3
Atom   3H    basis set group =>   3
Atom   4H    basis set group =>   3
Atom   5H    basis set group =>   3
Atom   6H    basis set group =>   3
Atom   7H    basis set group =>   3
Atom   8Pb   basis set group =>   4
Atom   9Cl   basis set group =>   5
Atom  10Cl   basis set group =>   5
Atom  11Cl   basis set group =>   5
-------------------------------
AUXILIARY BASIS SET INFORMATION
-------------------------------
There are 5 groups of distinct atoms

 Group   1 Type C   : 12s5p4d2f1g contracted to 6s4p3d1f1g pattern {711111/2111/211/2/1}
 Group   2 Type N   : 12s5p4d2f1g contracted to 6s4p3d1f1g pattern {711111/2111/211/2/1}
 Group   3 Type H   : 5s2p1d contracted to 3s1p1d pattern {311/2/1}
 Group   4 Type Pb  : 31s12p8d6f3g contracted to 31s12p8d6f3g pattern {1111111111111111111111111111111/111111111111/11111111/111111/111}
 Group   5 Type Cl  : 14s5p5d2f1g contracted to 8s4p3d1f1g pattern {71111111/2111/311/2/1}

Atom   0C    basis set group =>   1
Atom   1N    basis set group =>   2
Atom   2H    basis set group =>   3
Atom   3H    basis set group =>   3
Atom   4H    basis set group =>   3
Atom   5H    basis set group =>   3
Atom   6H    basis set group =>   3
Atom   7H    basis set group =>   3
Atom   8Pb   basis set group =>   4
Atom   9Cl   basis set group =>   5
Atom  10Cl   basis set group =>   5
Atom  11Cl   basis set group =>   5

-------------------------
ECP PARAMETER INFORMATION
-------------------------

 Group 1, Type Pb ECP SD(60,MDF) (replacing 60 core electrons, lmax=5)

Atom   8Pb   ECP group =>   1


------------------------------------------------------------------------------
                           ORCA GTO INTEGRAL CALCULATION
                           -- RI-GTO INTEGRALS CHOSEN --
------------------------------------------------------------------------------

                         BASIS SET STATISTICS AND STARTUP INFO

Gaussian basis set:
 # of primitive gaussian shells          ...  186
 # of primitive gaussian functions       ...  420
 # of contracted shells                  ...  101
 # of contracted basis functions         ...  259
 Highest angular momentum                ...    3
 Maximum contraction depth               ...    7
Auxiliary gaussian basis set:
 # of primitive gaussian shells          ...  237
 # of primitive gaussian functions       ...  643
 # of contracted shells                  ...  171
 # of contracted aux-basis functions     ...  493
 Highest angular momentum                ...    4
 Maximum contraction depth               ...    7
Ratio of auxiliary to basis functions    ...  1.90
Integral package used                  ... LIBINT
 One Electron integrals                  
   ECP integrals                         ... done
 Ordering auxiliary basis shells         ... done
 Integral threshhold             Thresh  ...  2.500e-11
 Primitive cut-off               TCut    ...  2.500e-12
 Pre-screening matrix                    ... done
 Shell pair data                         ... 
 Ordering of the shell pairs             ... done (   0.001 sec) 4492 of 5151 pairs
 Determination of significant pairs      ... done (   0.000 sec)
 Creation of shell pair data             ... done (   0.002 sec)
 Storage of shell pair data              ... done (   0.001 sec)
 Shell pair data done in (   0.004 sec)
 Computing two index integrals           ... done
 Cholesky decomposition of the V-matrix  ... done


Timings:
 Total evaluation time                   ...   0.609 sec (  0.010 min)
 One electron matrix time                ...   0.325 sec (  0.005 min) = 53.4%
 Schwartz matrix evaluation time         ...   0.233 sec (  0.004 min) = 38.3%
 Two index repulsion integral time       ...   0.009 sec (  0.000 min) =  1.5%
 Cholesky decomposition of V             ...   0.009 sec (  0.000 min) =  1.5%
 Three index repulsion integral time     ...   0.000 sec (  0.000 min) =  0.0%

-------------------------------------------------------------------------------
                                 ORCA SCF
-------------------------------------------------------------------------------

------------
SCF SETTINGS
------------
Hamiltonian:
 Density Functional     Method          .... DFT(GTOs)
 Exchange Functional    Exchange        .... B88
   X-Alpha parameter    XAlpha          ....  0.666667
   Becke's b parameter  XBeta           ....  0.004200
 Correlation Functional Correlation     .... LYP
 LDA part of GGA corr.  LDAOpt          .... VWN-3
 Gradients option       PostSCFGGA      .... off
 Hybrid DFT is turned on
   Fraction HF Exchange ScalHFX         ....  0.530000
   Scaling of DF-GGA-X  ScalDFX         ....  0.470000
   Scaling of DF-GGA-C  ScalDFC         ....  0.730000
   Scaling of DF-LDA-C  ScalLDAC        ....  0.730000
   Perturbative correction              ....  0.270000
 RI-approximation to the Coulomb term is turned on
   Number of auxiliary basis functions  .... 493
   RIJ-COSX (HFX calculated with COS-X)).... on


General Settings:
 Integral files         IntName         .... PbMACl3_mp2_md2_19.orca
 Hartree-Fock type      HFTyp           .... RHF
 Total Charge           Charge          ....    0
 Multiplicity           Mult            ....    1
 Number of Electrons    NEL             ....   92
 Basis Dimension        Dim             ....  259
 Nuclear Repulsion      ENuc            ....    613.4832271649 Eh

Convergence Acceleration:
 DIIS                   CNVDIIS         .... on
   Start iteration      DIISMaxIt       ....     0
   Startup error        DIISStart       ....  0.200000
   # of expansion vecs  DIISMaxEq       ....     5
   Bias factor          DIISBfac        ....   1.050
   Max. coefficient     DIISMaxC        ....  10.000
 Newton-Raphson         CNVNR           .... off
 SOSCF                  CNVSOSCF        .... on
   Start iteration      SOSCFMaxIt      ....   150
   Startup grad/error   SOSCFStart      ....  0.001000
 Level Shifting         CNVShift        .... on
   Level shift para.    LevelShift      ....    0.2500
   Turn off err/grad.   ShiftErr        ....    0.0000
 Zerner damping         CNVZerner       .... off
 Static damping         CNVDamp         .... on
   Fraction old density DampFac         ....    0.8500
   Max. Damping (<1)    DampMax         ....    0.9800
   Min. Damping (>=0)   DampMin         ....    0.0000
   Turn off err/grad.   DampErr         ....    0.0300
 Fernandez-Rico         CNVRico         .... off

SCF Procedure:
 Maximum # iterations   MaxIter         ....   125
 SCF integral mode      SCFMode         .... Direct
   Integral package                     .... LIBINT
 Reset frequeny         DirectResetFreq ....    20
 Integral Threshold     Thresh          ....  2.500e-11 Eh
 Primitive CutOff       TCut            ....  2.500e-12 Eh

Convergence Tolerance:
 Convergence Check Mode ConvCheckMode   .... Total+1el-Energy
 Energy Change          TolE            ....  1.000e-08 Eh
 1-El. energy change                    ....  1.000e-05 Eh
 Orbital Gradient       TolG            ....  1.000e-05
 Orbital Rotation angle TolX            ....  1.000e-05
 DIIS Error             TolErr          ....  5.000e-07


Diagonalization of the overlap matrix:
Smallest eigenvalue                        ... 1.063e-03
Time for diagonalization                   ...    0.017 sec
Threshold for overlap eigenvalues          ... 1.000e-08
Number of eigenvalues below threshold      ... 0
Time for construction of square roots      ...    0.005 sec
Total time needed                          ...    0.023 sec

---------------------
INITIAL GUESS: MOREAD
---------------------
Guess MOs are being read from file: previous.gbw
Input geometry compatible with but different from current geometry
Input basis set matches current basis set (good)
MOs were renormalized
MOs were reorthogonalized (Schmidt)
                      ------------------
                      INITIAL GUESS DONE (   0.1 sec)
                      ------------------
-------------------
DFT GRID GENERATION
-------------------

General Integration Accuracy     IntAcc      ...  5.010
Radial Grid Type                 RadialGrid  ... Gauss-Chebyshev
Angular Grid (max. acc.)         AngularGrid ... Lebedev-434
Angular grid pruning method      GridPruning ... 3 (G Style)
Weight generation scheme         WeightScheme... Becke
Basis function cutoff            BFCut       ...    1.0000e-11
Integration weight cutoff        WCut        ...    1.0000e-14
Grids for H and He will be reduced by one unit

# of grid points (after initial pruning)     ... 115882 (   0.0 sec)
# of grid points (after weights+screening)   ... 108499 (   0.2 sec)
nearest neighbour list constructed           ...    0.0 sec
Grid point re-assignment to atoms done       ...    0.0 sec
Grid point division into batches done        ...    0.9 sec
Reduced shell lists constructed in    4.0 sec

Total number of grid points                  ...   108499
Total number of batches                      ...     1703
Average number of points per batch           ...       63
Average number of grid points per atom       ...     9042
Average number of shells per batch           ...    56.24 (55.68%)
Average number of basis functions per batch  ...   149.07 (57.56%)
Average number of large shells per batch     ...    42.67 (75.88%)
Average number of large basis fcns per batch ...   110.09 (73.85%)
Maximum spatial batch extension              ...  34.71, 30.37, 32.62 au
Average spatial batch extension              ...   2.44,  2.39,  2.44 au

Time for grid setup =    4.308 sec

--------------------
COSX GRID GENERATION
--------------------

General Integration Accuracy     IntAcc      ...  3.340
Radial Grid Type                 RadialGrid  ... Gauss-Chebyshev
Angular Grid (max. acc.)         AngularGrid ... Lebedev-50
Angular grid pruning method      GridPruning ... 3 (G Style)
Weight generation scheme         WeightScheme... Becke
Basis function cutoff            BFCut       ...    1.0000e-11
Integration weight cutoff        WCut        ...    1.0000e-14
Grids for H and He will be reduced by one unit

# of grid points (after initial pruning)     ...   6578 (   0.0 sec)
# of grid points (after weights+screening)   ...   6189 (   0.0 sec)
nearest neighbour list constructed           ...    0.0 sec
Grid point re-assignment to atoms done       ...    0.0 sec
Grid point division into batches done        ...    0.0 sec
Reduced shell lists constructed in    0.2 sec

Total number of grid points                  ...     6189
Total number of batches                      ...      103
Average number of points per batch           ...       60
Average number of grid points per atom       ...      516
Average number of shells per batch           ...    68.33 (67.65%)
Average number of basis functions per batch  ...   184.42 (71.21%)
Average number of large shells per batch     ...    53.88 (78.85%)
Average number of large basis fcns per batch ...   141.61 (76.78%)
Maximum spatial batch extension              ...  36.32, 35.26, 36.53 au
Average spatial batch extension              ...   6.35,  6.17,  6.37 au

Overlap Fitting                  UseSFitting ... on
Constructing numerical overlap ... done (      0.1 sec)
Inverting numerical overlap    ... done (      0.0 sec)
Obtaining analytic overlap     ... done (      0.0 sec)
Final contraction and storage  ... done (      0.0 sec)


General Integration Accuracy     IntAcc      ...  3.670
Radial Grid Type                 RadialGrid  ... Gauss-Chebyshev
Angular Grid (max. acc.)         AngularGrid ... Lebedev-50
Angular grid pruning method      GridPruning ... 3 (G Style)
Weight generation scheme         WeightScheme... Becke
Basis function cutoff            BFCut       ...    1.0000e-11
Integration weight cutoff        WCut        ...    1.0000e-14
Grids for H and He will be reduced by one unit

# of grid points (after initial pruning)     ...   8124 (   0.0 sec)
# of grid points (after weights+screening)   ...   7631 (   0.0 sec)
nearest neighbour list constructed           ...    0.0 sec
Grid point re-assignment to atoms done       ...    0.0 sec
Grid point division into batches done        ...    0.0 sec
Reduced shell lists constructed in    0.3 sec

Total number of grid points                  ...     7631
Total number of batches                      ...      124
Average number of points per batch           ...       61
Average number of grid points per atom       ...      636
Average number of shells per batch           ...    66.97 (66.30%)
Average number of basis functions per batch  ...   180.01 (69.50%)
Average number of large shells per batch     ...    52.35 (78.17%)
Average number of large basis fcns per batch ...   137.41 (76.33%)
Maximum spatial batch extension              ...  37.91, 37.03, 37.97 au
Average spatial batch extension              ...   6.16,  5.82,  6.09 au

Overlap Fitting                  UseSFitting ... on
Constructing numerical overlap ... done (      0.2 sec)
Inverting numerical overlap    ... done (      0.0 sec)
Obtaining analytic overlap     ... done (      0.0 sec)
Final contraction and storage  ... done (      0.0 sec)


General Integration Accuracy     IntAcc      ...  4.010
Radial Grid Type                 RadialGrid  ... Gauss-Chebyshev
Angular Grid (max. acc.)         AngularGrid ... Lebedev-110
Angular grid pruning method      GridPruning ... 3 (G Style)
Weight generation scheme         WeightScheme... Becke
Basis function cutoff            BFCut       ...    1.0000e-11
Integration weight cutoff        WCut        ...    1.0000e-14
Grids for H and He will be reduced by one unit

# of grid points (after initial pruning)     ...  15170 (   0.0 sec)
# of grid points (after weights+screening)   ...  14355 (   0.0 sec)
nearest neighbour list constructed           ...    0.0 sec
Grid point re-assignment to atoms done       ...    0.0 sec
Grid point division into batches done        ...    0.0 sec
Reduced shell lists constructed in    0.5 sec

Total number of grid points                  ...    14355
Total number of batches                      ...      232
Average number of points per batch           ...       61
Average number of grid points per atom       ...     1196
Average number of shells per batch           ...    63.72 (63.09%)
Average number of basis functions per batch  ...   170.87 (65.97%)
Average number of large shells per batch     ...    49.10 (77.06%)
Average number of large basis fcns per batch ...   128.45 (75.18%)
Maximum spatial batch extension              ...  39.35, 31.04, 31.89 au
Average spatial batch extension              ...   4.99,  4.91,  4.91 au

Overlap Fitting                  UseSFitting ... on
Constructing numerical overlap ... done (      0.3 sec)
Inverting numerical overlap    ... done (      0.0 sec)
Obtaining analytic overlap     ... done (      0.0 sec)
Final contraction and storage  ... done (      0.0 sec)

Time for X-Grid setup             =    1.698 sec
--------------
SCF ITERATIONS
--------------
ITER       Energy         Delta-E        Max-DP      RMS-DP      [F,P]     Damp
               ***  Starting incremental Fock matrix formation  ***
  0  -1668.9314863804   0.000000000000 0.00692896  0.00023112  0.3605265 0.8500
  1  -1668.9428890377  -0.011402657332 0.00764478  0.00026299  0.3067504 0.8500
                               ***Turning on DIIS***
  2  -1668.9531966092  -0.010307571416 0.00742193  0.00024792  0.2608373 0.8500
  3  -1668.9620301309  -0.008833521729 0.00928776  0.00023135  0.2217839 0.8500
  4  -1668.9696771816  -0.007647050659 0.01236249  0.00021982  0.1885565 0.8500
  5  -1668.9762768485  -0.006599666973 0.01204161  0.00020219  0.1602915 0.8500
  6  -1668.9820380910  -0.005761242511 0.01063797  0.00018094  0.1362570 0.8500
  7  -1668.9870840013  -0.005045910290 0.00887151  0.00015912  0.1158235 0.8500
  8  -1668.9915008225  -0.004416821167 0.00773862  0.00013915  0.0984533 0.8500
  9  -1668.9953427485  -0.003841925971 0.00694111  0.00012113  0.0836877 0.8500
 10  -1668.9986741720  -0.003331423499 0.00615325  0.00010495  0.0711367 0.8500
 11  -1669.0015582980  -0.002884126047 0.00533778  0.00009055  0.0604682 0.8500
 12  -1669.0040513026  -0.002493004592 0.00456552  0.00007792  0.0513997 0.8500
 13  -1669.0062021637  -0.002150861070 0.00390766  0.00006695  0.0436910 0.8500
 14  -1669.0080540357  -0.001851872009 0.00336507  0.00005749  0.0371383 0.8500
 15  -1669.0096455565  -0.001591520796 0.00290480  0.00004933  0.0315684 0.8500
 16  -1669.0110113107  -0.001365754192 0.01668084  0.00028204  0.0268338 0.0000
                      *** Initiating the SOSCF procedure ***
                           *** Shutting down DIIS ***
                      *** Re-Reading the Fockian *** 
                      *** Removing any level shift *** 
ITER      Energy       Delta-E        Grad      Rot      Max-DP    RMS-DP
 17  -1669.01899415  -0.0079828392  0.000147  0.000147  0.000614  0.000007
               *** Restarting incremental Fock matrix formation ***
 18  -1669.01899158   0.0000025713  0.000086  0.000271  0.000240  0.000006
 19  -1669.01899183  -0.0000002529  0.000029  0.000151  0.000266  0.000003
 20  -1669.01899180   0.0000000362  0.000027  0.000028  0.000116  0.000001
                  ***Gradient check signals convergence***
              ***Rediagonalizing the Fockian in SOSCF/NRSCF***

               *****************************************************
               *                     SUCCESS                       *
               *           SCF CONVERGED AFTER  21 CYCLES          *
               *****************************************************

Old exchange energy                            =    -59.228678108 Eh
New exchange energy                            =    -59.231423505 Eh
Exchange energy change after final integration =     -0.002745397 Eh
Total energy after final integration           =  -1669.021737195 Eh
Final COS-X integration done in                =    23.481 sec

----------------
TOTAL SCF ENERGY
----------------

Total Energy       :        -1669.02173719 Eh          -45416.39039 eV

Components:
Nuclear Repulsion  :          613.48322716 Eh           16693.72730 eV
Electronic Energy  :        -2282.50496436 Eh          -62110.11770 eV

One Electron Energy:        -3597.16600937 Eh          -97883.86343 eV
Two Electron Energy:         1314.66104501 Eh           35773.74574 eV

Virial components:
Potential Energy   :        -3206.94601948 Eh          -87265.43768 eV
Kinetic Energy     :         1537.92428229 Eh           41849.04729 eV
Virial Ratio       :            2.08524311


DFT components:
N(Alpha)           :       46.000011982589 electrons
N(Beta)            :       46.000011982589 electrons
N(Total)           :       92.000023965178 electrons
E(X)               :      -52.598759351294 Eh       
E(C)               :       -2.612884481235 Eh       
E(XC)              :      -55.211643832529 Eh       

---------------
SCF CONVERGENCE
---------------

  Last Energy change         ...   -2.6203e-09  Tolerance :   1.0000e-08
  Last MAX-Density change    ...    8.3322e-14  Tolerance :   1.0000e-07
  Last RMS-Density change    ...    7.0704e-16  Tolerance :   5.0000e-09
  Last Orbital Gradient      ...    1.7773e-06  Tolerance :   1.0000e-05
  Last Orbital Rotation      ...    4.1239e-06  Tolerance :   1.0000e-05

             **** THE GBW FILE WAS UPDATED (PbMACl3_mp2_md2_19.orca.gbw) ****
             **** DENSITY FILE WAS UPDATED (PbMACl3_mp2_md2_19.orca.scfp.tmp) ****
             **** ENERGY FILE WAS UPDATED (PbMACl3_mp2_md2_19.orca.en.tmp) ****
----------------
ORBITAL ENERGIES
----------------

  NO   OCC          E(Eh)            E(eV) 
   0   2.0000    -102.868737     -2799.2007 
   1   2.0000    -102.863850     -2799.0677 
   2   2.0000    -102.857757     -2798.9019 
   3   2.0000     -14.959650      -407.0728 
   4   2.0000     -10.709766      -291.4275 
   5   2.0000      -9.877462      -268.7794 
   6   2.0000      -9.872162      -268.6352 
   7   2.0000      -9.865401      -268.4512 
   8   2.0000      -7.514357      -204.4760 
   9   2.0000      -7.512833      -204.4346 
  10   2.0000      -7.512354      -204.4216 
  11   2.0000      -7.509074      -204.3323 
  12   2.0000      -7.507585      -204.2918 
  13   2.0000      -7.507083      -204.2781 
  14   2.0000      -7.502549      -204.1547 
  15   2.0000      -7.500710      -204.1047 
  16   2.0000      -7.500373      -204.0955 
  17   2.0000      -5.797760      -157.7651 
  18   2.0000      -3.569621       -97.1343 
  19   2.0000      -3.567872       -97.0867 
  20   2.0000      -3.567819       -97.0853 
  21   2.0000      -1.144296       -31.1379 
  22   2.0000      -0.976321       -26.5671 
  23   2.0000      -0.973460       -26.4892 
  24   2.0000      -0.961563       -26.1655 
  25   2.0000      -0.958393       -26.0792 
  26   2.0000      -0.956957       -26.0401 
  27   2.0000      -0.907423       -24.6922 
  28   2.0000      -0.880990       -23.9730 
  29   2.0000      -0.869191       -23.6519 
  30   2.0000      -0.858126       -23.3508 
  31   2.0000      -0.671111       -18.2619 
  32   2.0000      -0.669640       -18.2218 
  33   2.0000      -0.608453       -16.5568 
  34   2.0000      -0.559986       -15.2380 
  35   2.0000      -0.522769       -14.2253 
  36   2.0000      -0.521480       -14.1902 
  37   2.0000      -0.405074       -11.0226 
  38   2.0000      -0.396034       -10.7766 
  39   2.0000      -0.381337       -10.3767 
  40   2.0000      -0.365512        -9.9461 
  41   2.0000      -0.364430        -9.9166 
  42   2.0000      -0.361202        -9.8288 
  43   2.0000      -0.355254        -9.6669 
  44   2.0000      -0.347543        -9.4571 
  45   2.0000      -0.290775        -7.9124 
  46   0.0000      -0.004285        -0.1166 
  47   0.0000       0.025377         0.6905 
  48   0.0000       0.038342         1.0433 
  49   0.0000       0.041349         1.1252 
  50   0.0000       0.088347         2.4041 
  51   0.0000       0.109190         2.9712 
  52   0.0000       0.112023         3.0483 
  53   0.0000       0.115506         3.1431 
  54   0.0000       0.131566         3.5801 
  55   0.0000       0.143997         3.9184 
  56   0.0000       0.149870         4.0782 
  57   0.0000       0.156050         4.2463 
  58   0.0000       0.179416         4.8822 
  59   0.0000       0.222958         6.0670 
  60   0.0000       0.226373         6.1599 
  61   0.0000       0.264955         7.2098 
  62   0.0000       0.268601         7.3090 
  63   0.0000       0.271775         7.3954 
  64   0.0000       0.273673         7.4470 
  65   0.0000       0.279251         7.5988 
  66   0.0000       0.289276         7.8716 
  67   0.0000       0.324572         8.8321 
  68   0.0000       0.330253         8.9866 
  69   0.0000       0.352972         9.6049 
  70   0.0000       0.393798        10.7158 
  71   0.0000       0.402381        10.9494 
  72   0.0000       0.414131        11.2691 
  73   0.0000       0.424401        11.5485 
  74   0.0000       0.429566        11.6891 
  75   0.0000       0.432565        11.7707 
  76   0.0000       0.437899        11.9158 
  77   0.0000       0.443532        12.0691 
  78   0.0000       0.448854        12.2139 
  79   0.0000       0.450834        12.2678 
  80   0.0000       0.478951        13.0329 
  81   0.0000       0.485290        13.2054 
  82   0.0000       0.495277        13.4772 
  83   0.0000       0.511785        13.9264 
  84   0.0000       0.518020        14.0961 
  85   0.0000       0.522774        14.2254 
  86   0.0000       0.528607        14.3841 
  87   0.0000       0.541006        14.7215 
  88   0.0000       0.558384        15.1944 
  89   0.0000       0.566646        15.4192 
  90   0.0000       0.573019        15.5926 
  91   0.0000       0.585857        15.9420 
  92   0.0000       0.596603        16.2344 
  93   0.0000       0.615412        16.7462 
  94   0.0000       0.622808        16.9475 
  95   0.0000       0.630818        17.1654 
  96   0.0000       0.640875        17.4391 
  97   0.0000       0.648188        17.6381 
  98   0.0000       0.683441        18.5974 
  99   0.0000       0.699596        19.0370 
 100   0.0000       0.711735        19.3673 
 101   0.0000       0.731651        19.9092 
 102   0.0000       0.763675        20.7807 
 103   0.0000       0.793462        21.5912 
 104   0.0000       0.803825        21.8732 
 105   0.0000       0.862665        23.4743 
 106   0.0000       0.871076        23.7032 
 107   0.0000       0.877507        23.8782 
 108   0.0000       0.890477        24.2311 
 109   0.0000       0.894845        24.3500 
 110   0.0000       0.910226        24.7685 
 111   0.0000       0.914938        24.8967 
 112   0.0000       0.924752        25.1638 
 113   0.0000       0.947008        25.7694 
 114   0.0000       0.972413        26.4607 
 115   0.0000       0.987601        26.8740 
 116   0.0000       1.020275        27.7631 
 117   0.0000       1.065910        29.0049 
 118   0.0000       1.071965        29.1697 
 119   0.0000       1.088718        29.6255 
 120   0.0000       1.097369        29.8609 
 121   0.0000       1.105642        30.0860 
 122   0.0000       1.115515        30.3547 
 123   0.0000       1.227275        33.3959 
 124   0.0000       1.238292        33.6957 
 125   0.0000       1.289177        35.0803 
 126   0.0000       1.316643        35.8277 
 127   0.0000       1.317249        35.8442 
 128   0.0000       1.381640        37.5963 
 129   0.0000       1.407829        38.3090 
 130   0.0000       1.494054        40.6553 
 131   0.0000       1.565678        42.6043 
 132   0.0000       1.579723        42.9865 
 133   0.0000       1.585026        43.1307 
 134   0.0000       1.595934        43.4276 
 135   0.0000       1.654020        45.0082 
 136   0.0000       1.741772        47.3960 
 137   0.0000       1.777514        48.3686 
 138   0.0000       1.800455        48.9929 
 139   0.0000       1.878610        51.1196 
 140   0.0000       1.887847        51.3709 
 141   0.0000       1.900147        51.7056 
 142   0.0000       1.934176        52.6316 
 143   0.0000       1.941946        52.8431 
 144   0.0000       1.942966        52.8708 
 145   0.0000       1.957665        53.2708 
 146   0.0000       1.960935        53.3598 
 147   0.0000       1.970920        53.6315 
 148   0.0000       1.986341        54.0511 
 149   0.0000       2.001824        54.4724 
 150   0.0000       2.019896        54.9642 
 151   0.0000       2.027478        55.1705 
 152   0.0000       2.031760        55.2870 
 153   0.0000       2.042485        55.5788 
 154   0.0000       2.085879        56.7596 
 155   0.0000       2.091954        56.9249 
 156   0.0000       2.093070        56.9553 
 157   0.0000       2.098650        57.1072 
 158   0.0000       2.110932        57.4414 
 159   0.0000       2.119186        57.6660 
 160   0.0000       2.128650        57.9235 
 161   0.0000       2.139180        58.2100 
 162   0.0000       2.148382        58.4604 
 163   0.0000       2.169991        59.0485 
 164   0.0000       2.182134        59.3789 
 165   0.0000       2.185663        59.4749 
 166   0.0000       2.203858        59.9700 
 167   0.0000       2.215853        60.2964 
 168   0.0000       2.230983        60.7081 
 169   0.0000       2.234314        60.7988 
 170   0.0000       2.240002        60.9536 
 171   0.0000       2.248265        61.1784 
 172   0.0000       2.252539        61.2947 
 173   0.0000       2.262038        61.5532 
 174   0.0000       2.264767        61.6274 
 175   0.0000       2.278059        61.9891 
 176   0.0000       2.282539        62.1110 
 177   0.0000       2.308523        62.8181 
 178   0.0000       2.317212        63.0545 
 179   0.0000       2.329348        63.3848 
 180   0.0000       2.357833        64.1599 
 181   0.0000       2.367324        64.4182 
 182   0.0000       2.377169        64.6861 
 183   0.0000       2.380661        64.7811 
 184   0.0000       2.397950        65.2515 
 185   0.0000       2.406940        65.4962 
 186   0.0000       2.415920        65.7405 
 187   0.0000       2.422680        65.9245 
 188   0.0000       2.428990        66.0962 
 189   0.0000       2.448269        66.6208 
 190   0.0000       2.459858        66.9361 
 191   0.0000       2.470925        67.2373 
 192   0.0000       2.483433        67.5776 
 193   0.0000       2.501495        68.0691 
 194   0.0000       2.518878        68.5422 
 195   0.0000       2.523582        68.6701 
 196   0.0000       2.541708        69.1634 
 197   0.0000       2.590337        70.4867 
 198   0.0000       2.598906        70.7198 
 199   0.0000       2.626888        71.4813 
 200   0.0000       2.628941        71.5371 
 201   0.0000       2.656011        72.2737 
 202   0.0000       2.677702        72.8640 
 203   0.0000       2.776798        75.5605 
 204   0.0000       2.783426        75.7409 
 205   0.0000       2.812122        76.5217 
 206   0.0000       2.848683        77.5166 
 207   0.0000       2.850533        77.5669 
 208   0.0000       2.875489        78.2460 
 209   0.0000       2.938003        79.9471 
 210   0.0000       2.958588        80.5073 
 211   0.0000       3.052310        83.0576 
 212   0.0000       3.148969        85.6878 
 213   0.0000       3.151743        85.7633 
 214   0.0000       3.227158        87.8154 
 215   0.0000       3.252943        88.5171 
 216   0.0000       3.301131        89.8283 
 217   0.0000       3.396759        92.4305 
 218   0.0000       3.406403        92.6929 
 219   0.0000       3.556292        96.7716 
 220   0.0000       3.581262        97.4511 
 221   0.0000       3.590352        97.6985 
 222   0.0000       3.783517       102.9547 
 223   0.0000       3.788141       103.0805 
 224   0.0000       3.930041       106.9419 
 225   0.0000       4.188669       113.9795 
 226   0.0000       4.200019       114.2883 
 227   0.0000       4.438823       120.7865 
 228   0.0000       4.458881       121.3323 
 229   0.0000       4.852497       132.0432 
 230   0.0000       4.854422       132.0955 
 231   0.0000       4.954703       134.8243 
 232   0.0000       4.970677       135.2590 
 233   0.0000       5.106044       138.9425 
 234   0.0000       5.121990       139.3764 
 235   0.0000       5.140474       139.8794 
 236   0.0000       5.323165       144.8507 
 237   0.0000       5.537181       150.6743 
 238   0.0000       5.545355       150.8968 
 239   0.0000       5.874070       159.8416 
 240   0.0000      11.040364       300.4236 
 241   0.0000      11.047299       300.6123 
 242   0.0000      11.060165       300.9624 
 243   0.0000      11.091324       301.8103 
 244   0.0000      11.107173       302.2416 
 245   0.0000      11.113494       302.4136 
 246   0.0000      11.168556       303.9119 
 247   0.0000      11.207321       304.9667 
 248   0.0000      11.220064       305.3135 
 249   0.0000      22.668126       616.8311 
 250   0.0000      25.251148       687.1187 
 251   0.0000      25.412652       691.5134 
 252   0.0000      25.484696       693.4738 
 253   0.0000      32.429350       882.4475 
 254   0.0000      35.565282       967.7805 
 255   0.0000      35.808773       974.4062 
 256   0.0000      35.836920       975.1722 
 257   0.0000      35.926558       977.6113 
 258   0.0000     123.631136      3364.1742 

                    ********************************
                    * MULLIKEN POPULATION ANALYSIS *
                    ********************************

-----------------------
MULLIKEN ATOMIC CHARGES
-----------------------
   0 C :   -0.262107
   1 N :   -0.317812
   2 H :    0.157424
   3 H :    0.159842
   4 H :    0.159126
   5 H :    0.300662
   6 H :    0.294731
   7 H :    0.297223
   8 Pb:    0.782545
   9 Cl:   -0.518650
  10 Cl:   -0.523572
  11 Cl:   -0.529411
Sum of atomic charges:   -0.0000000

--------------------------------
MULLIKEN REDUCED ORBITAL CHARGES
--------------------------------
  0 C s       :     3.281796  s :     3.281796
      pz      :     0.977793  p :     2.904845
      px      :     0.992539
      py      :     0.934514
      dz2     :     0.006773  d :     0.069353
      dxz     :     0.018449
      dyz     :     0.018221
      dx2y2   :     0.007783
      dxy     :     0.018126
      f0      :     0.000356  f :     0.006113
      f+1     :     0.000505
      f-1     :     0.000732
      f+2     :     0.000756
      f-2     :     0.002645
      f+3     :     0.000511
      f-3     :     0.000608
  1 N s       :     3.433573  s :     3.433573
      pz      :     1.278322  p :     3.835226
      px      :     1.286469
      py      :     1.270435
      dz2     :     0.005640  d :     0.046885
      dxz     :     0.011960
      dyz     :     0.011321
      dx2y2   :     0.006207
      dxy     :     0.011758
      f0      :     0.000105  f :     0.002128
      f+1     :     0.000154
      f-1     :     0.000195
      f+2     :     0.000216
      f-2     :     0.001132
      f+3     :     0.000159
      f-3     :     0.000169
  2 H s       :     0.820859  s :     0.820859
      pz      :     0.008280  p :     0.021716
      px      :     0.007776
      py      :     0.005660
  3 H s       :     0.818402  s :     0.818402
      pz      :     0.006907  p :     0.021756
      px      :     0.007349
      py      :     0.007499
  4 H s       :     0.819088  s :     0.819088
      pz      :     0.006803  p :     0.021786
      px      :     0.007383
      py      :     0.007599
  5 H s       :     0.661578  s :     0.661578
      pz      :     0.009198  p :     0.037760
      px      :     0.015474
      py      :     0.013088
  6 H s       :     0.659741  s :     0.659741
      pz      :     0.013417  p :     0.045529
      px      :     0.011147
      py      :     0.020965
  7 H s       :     0.656349  s :     0.656349
      pz      :     0.022174  p :     0.046428
      px      :     0.015095
      py      :     0.009159
  8 Pbs       :     3.922866  s :     3.922866
      pz      :     2.393570  p :     7.067266
      px      :     2.327064
      py      :     2.346632
      dz2     :     2.030928  d :    10.154554
      dxz     :     2.030656
      dyz     :     2.031355
      dx2y2   :     2.029490
      dxy     :     2.032125
      f0      :     0.011174  f :     0.072769
      f+1     :     0.011981
      f-1     :     0.008581
      f+2     :     0.011174
      f-2     :     0.006656
      f+3     :     0.010883
      f-3     :     0.012321
  9 Cls       :     5.953301  s :     5.953301
      pz      :     3.923867  p :    11.540401
      px      :     3.756589
      py      :     3.859945
      dz2     :     0.002810  d :     0.023855
      dxz     :     0.004651
      dyz     :     0.002525
      dx2y2   :     0.008441
      dxy     :     0.005427
      f0      :     0.000146  f :     0.001093
      f+1     :     0.000152
      f-1     :     0.000056
      f+2     :     0.000169
      f-2     :     0.000121
      f+3     :     0.000181
      f-3     :     0.000267
 10 Cls       :     5.954304  s :     5.954304
      pz      :     3.876281  p :    11.545930
      px      :     3.937734
      py      :     3.731915
      dz2     :     0.005194  d :     0.022365
      dxz     :     0.002036
      dyz     :     0.004561
      dx2y2   :     0.007661
      dxy     :     0.002914
      f0      :     0.000087  f :     0.000974
      f+1     :     0.000099
      f-1     :     0.000167
      f+2     :     0.000168
      f-2     :     0.000047
      f+3     :     0.000137
      f-3     :     0.000269
 11 Cls       :     5.953472  s :     5.953472
      pz      :     3.763806  p :    11.555305
      px      :     3.852991
      py      :     3.938508
      dz2     :     0.006772  d :     0.019742
      dxz     :     0.006750
      dyz     :     0.002136
      dx2y2   :     0.002113
      dxy     :     0.001971
      f0      :     0.000175  f :     0.000892
      f+1     :     0.000345
      f-1     :     0.000089
      f+2     :     0.000125
      f-2     :     0.000082
      f+3     :     0.000029
      f-3     :     0.000048


                     *******************************
                     * LOEWDIN POPULATION ANALYSIS *
                     *******************************

----------------------
LOEWDIN ATOMIC CHARGES
----------------------
   0 C :   -0.273475
   1 N :    0.067346
   2 H :    0.125000
   3 H :    0.126167
   4 H :    0.126418
   5 H :    0.181625
   6 H :    0.151282
   7 H :    0.144427
   8 Pb:   -0.112378
   9 Cl:   -0.156292
  10 Cl:   -0.182243
  11 Cl:   -0.197875

-------------------------------
LOEWDIN REDUCED ORBITAL CHARGES
-------------------------------
  0 C s       :     2.853198  s :     2.853198
      pz      :     1.032428  p :     3.080653
      px      :     1.042434
      py      :     1.005790
      dz2     :     0.028260  d :     0.302619
      dxz     :     0.079340
      dyz     :     0.081981
      dx2y2   :     0.032653
      dxy     :     0.080384
      f0      :     0.005232  f :     0.037006
      f+1     :     0.003904
      f-1     :     0.005729
      f+2     :     0.004387
      f-2     :     0.007023
      f+3     :     0.004929
      f-3     :     0.005800
  1 N s       :     3.002077  s :     3.002077
      pz      :     1.251277  p :     3.760536
      px      :     1.254580
      py      :     1.254679
      dz2     :     0.017705  d :     0.160529
      dxz     :     0.041752
      dyz     :     0.041077
      dx2y2   :     0.019235
      dxy     :     0.040760
      f0      :     0.001443  f :     0.009512
      f+1     :     0.001149
      f-1     :     0.001422
      f+2     :     0.001027
      f-2     :     0.001706
      f+3     :     0.001233
      f-3     :     0.001532
  2 H s       :     0.812758  s :     0.812758
      pz      :     0.022838  p :     0.062243
      px      :     0.021716
      py      :     0.017689
  3 H s       :     0.811549  s :     0.811549
      pz      :     0.019375  p :     0.062285
      px      :     0.022314
      py      :     0.020596
  4 H s       :     0.811250  s :     0.811250
      pz      :     0.020828  p :     0.062333
      px      :     0.020668
      py      :     0.020837
  5 H s       :     0.706029  s :     0.706029
      pz      :     0.031079  p :     0.112346
      px      :     0.043061
      py      :     0.038206
  6 H s       :     0.710909  s :     0.710909
      pz      :     0.040194  p :     0.137810
      px      :     0.036529
      py      :     0.061087
  7 H s       :     0.712918  s :     0.712918
      pz      :     0.066224  p :     0.142655
      px      :     0.046139
      py      :     0.030292
  8 Pbs       :     3.688847  s :     3.688847
      pz      :     2.552691  p :     7.546021
      px      :     2.487654
      py      :     2.505676
      dz2     :     2.133385  d :    10.657938
      dxz     :     2.137295
      dyz     :     2.107917
      dx2y2   :     2.159876
      dxy     :     2.119465
      f0      :     0.030512  f :     0.219572
      f+1     :     0.041320
      f-1     :     0.023595
      f+2     :     0.034141
      f-2     :     0.017745
      f+3     :     0.028305
      f-3     :     0.043955
  9 Cls       :     5.723421  s :     5.723421
      pz      :     3.864399  p :    11.384887
      px      :     3.730577
      py      :     3.789911
      dz2     :     0.004857  d :     0.045284
      dxz     :     0.010289
      dyz     :     0.004119
      dx2y2   :     0.018042
      dxy     :     0.007976
      f0      :     0.000392  f :     0.002701
      f+1     :     0.000243
      f-1     :     0.000077
      f+2     :     0.000560
      f-2     :     0.000257
      f+3     :     0.000430
      f-3     :     0.000742
 10 Cls       :     5.737019  s :     5.737019
      pz      :     3.812530  p :    11.401620
      px      :     3.879281
      py      :     3.709809
      dz2     :     0.010873  d :     0.041239
      dxz     :     0.003101
      dyz     :     0.005258
      dx2y2   :     0.018939
      dxy     :     0.003069
      f0      :     0.000264  f :     0.002365
      f+1     :     0.000257
      f-1     :     0.000491
      f+2     :     0.000290
      f-2     :     0.000056
      f+3     :     0.000175
      f-3     :     0.000833
 11 Cls       :     5.743373  s :     5.743373
      pz      :     3.735072  p :    11.417388
      px      :     3.799021
      py      :     3.883295
      dz2     :     0.015222  d :     0.035108
      dxz     :     0.012776
      dyz     :     0.002587
      dx2y2   :     0.002320
      dxy     :     0.002204
      f0      :     0.000422  f :     0.002006
      f+1     :     0.001003
      f-1     :     0.000132
      f+2     :     0.000223
      f-2     :     0.000111
      f+3     :     0.000035
      f-3     :     0.000080


                      *****************************
                      * MAYER POPULATION ANALYSIS *
                      *****************************

  NA   - Mulliken gross atomic population
  ZA   - Total nuclear charge
  QA   - Mulliken gross atomic charge
  VA   - Mayer's total valence
  BVA  - Mayer's bonded valence
  FA   - Mayer's free valence

  ATOM       NA         ZA         QA         VA         BVA        FA
  0 C      6.2621     6.0000    -0.2621     3.8437     3.8437     0.0000
  1 N      7.3178     7.0000    -0.3178     3.3294     3.3294     0.0000
  2 H      0.8426     1.0000     0.1574     0.9619     0.9619    -0.0000
  3 H      0.8402     1.0000     0.1598     0.9618     0.9618     0.0000
  4 H      0.8409     1.0000     0.1591     0.9650     0.9650     0.0000
  5 H      0.6993     1.0000     0.3007     0.9470     0.9470    -0.0000
  6 H      0.7053     1.0000     0.2947     0.9609     0.9609    -0.0000
  7 H      0.7028     1.0000     0.2972     0.9634     0.9634     0.0000
  8 Pb    21.2175    22.0000     0.7825     2.0028     2.0028     0.0000
  9 Cl    17.5187    17.0000    -0.5187     0.8190     0.8190     0.0000
 10 Cl    17.5236    17.0000    -0.5236     0.8139     0.8139    -0.0000
 11 Cl    17.5294    17.0000    -0.5294     0.8030     0.8030    -0.0000

  Mayer bond orders larger than 0.1
B(  0-C ,  1-N ) :   0.9036 B(  0-C ,  2-H ) :   0.9697 B(  0-C ,  3-H ) :   0.9697 
B(  0-C ,  4-H ) :   0.9701 B(  1-N ,  5-H ) :   0.8415 B(  1-N ,  6-H ) :   0.8083 
B(  1-N ,  7-H ) :   0.7968 B(  6-H ,  9-Cl) :   0.1515 B(  7-H , 10-Cl) :   0.1695 
B(  8-Pb,  9-Cl) :   0.6530 B(  8-Pb, 10-Cl) :   0.6385 B(  8-Pb, 11-Cl) :   0.6869 


-------
TIMINGS
-------

Total SCF time: 0 days 0 hours 5 min 12 sec 

Total time                  ....     312.056 sec
Sum of individual times     ....     287.277 sec  ( 92.1%)

Fock matrix formation       ....     280.264 sec  ( 89.8%)
  Coulomb formation         ....     215.422 sec  ( 76.9% of F)
  Split-RI-J                ....      19.451 sec  (  6.9% of F)
  Chain of spheres X        ....     219.378 sec  ( 78.3% of F)
  COS-X 1 center corr.      ....       0.000 sec  (  0.0% of F)
  XC integration            ....      64.905 sec  ( 23.2% of F)
    Basis function eval.    ....      30.382 sec  ( 46.8% of XC)
    Density eval.           ....      14.671 sec  ( 22.6% of XC)
    XC-Functional eval.     ....       3.378 sec  (  5.2% of XC)
    XC-Potential eval.      ....      15.049 sec  ( 23.2% of XC)
Diagonalization             ....       0.552 sec  (  0.2%)
Density matrix formation    ....       0.038 sec  (  0.0%)
Population analysis         ....       0.075 sec  (  0.0%)
Initial guess               ....       0.118 sec  (  0.0%)
Orbital Transformation      ....       0.000 sec  (  0.0%)
Orbital Orthonormalization  ....       0.115 sec  (  0.0%)
DIIS solution               ....       0.142 sec  (  0.0%)
SOSCF solution              ....       0.081 sec  (  0.0%)
Grid generation             ....       6.006 sec  (  1.9%)

------------------------------------------------------------------------------
                              ORCA MP2 CALCULATION
------------------------------------------------------------------------------


----------------------
RI-MP2 ENERGY+GRADIENT
----------------------
Dimension of the basis                    ...  259
Memory devoted to MP2                     ... 1000 MB   
Data format for buffers                   ... DOUBLE
Compression type for matrix containers    ... UNCOMPRESSED
Overall scaling of the MP2 energy         ...   2.700e-01 Eh
Calculating two index integrals           ... done (    0.013 sec)
Cholesky decomposition of the V-matrix    ... done
Cholesky decomposition of V**-1           ... done (    0.032 sec)

-----------------
RI-TRANSFORMATION (AUX index driven)
-----------------

Dimension of the orbital-basis         ... 259
Dimension of the aux-basis             ... 493
Transformation of internal MOs         ...    0-  45
Transformation of internal/external MOs...    0-  45 to   46- 258
Number Format for Storage              ... Double (8 Byte)
Integral mode                          ... Direct

First Phase: integral generation and transformation of MO indices
  Aux angular momentum 0               ... done (    0.427 sec)
  Aux angular momentum 1               ... done (    0.283 sec)
  Aux angular momentum 2               ... done (    0.332 sec)
  Aux angular momentum 3               ... done (    0.188 sec)
  Aux angular momentum 4               ... done (    0.163 sec)
Closing buffer VIJ ( 0.00 GB; CompressionRatio= 1.95)
Closing buffer VIA ( 0.04 GB; CompressionRatio= 1.00)
  Phase 1 completed in     1.495 sec
Second Phase: sorting and transformation of aux index

IJ-Transformation
Memory available                       ... 990 MB 
Max. # MO pairs treated in a batch     ... 46    
# of internal orbitals                 ... 46
# batches for internal orbitals        ... 1
Closing buffer IJV ( 0.00 GB; CompressionRatio= 1.00)
(ij|v) transformation done in     0.085 sec

IA-Transformation
Memory available                       ... 990 MB 
Max. # MO pairs treated in a batch     ... 46    
# of internal orbitals                 ... 46
# batches for internal orbitals        ... 1
Closing buffer IAV ( 0.04 GB; CompressionRatio= 1.00)
(ia|v) transformation done in     0.333 sec

  Phase 2 completed in     0.436 sec
RI-Integral transformation completed in     1.932 sec
Opening buffers                              ... done

Starting loop over batches of integrals:

Operator 0  - window                       ... (  0- 45)x( 46-258)
Operator 0  - Memory available             ...  1000 MB
Operator 0  - Memory needed per MO         ...   1.6 MB
Operator 0  - Number of orbitals per batch ... 46
Operator 0  - Number of batches            ... 1

OPERATOR  0   PASS   0:  MOs     0 ...   45
  Reading integrals       ... ok
  Internal MO   2
  Internal MO   5
  Internal MO   8
  Internal MO  11
  Internal MO  14
  Internal MO  17
  Internal MO  20
  Internal MO  23
  Internal MO  26
  Internal MO  29
  Internal MO  32
  Internal MO  35
  Internal MO  38
  Internal MO  41
  Internal MO  44
Closing buffer GIPV ( 0.04 GB; CompressionRatio= 1.00)
Time spent in pair loops =    46.326 sec

-----------------------------------------------
 RI-MP2 CORRELATION ENERGY:     -0.581656452 Eh
-----------------------------------------------


---------------------
MP2 DENSITY FORMATION
---------------------

Completing the external part of the density      ... done
Storing the unrelaxed density                    ... done

Calculating the xc-kernel                        ... done
Calculating G(D)                                 ... done
Completing the Lagrangian                        ... done
Solving the Z-vector equations                   ... 

------------------------------------------------------------------------------
                           ORCA CP-SCF CALCULATION
------------------------------------------------------------------------------

Input orbitals are from        ... PbMACl3_mp2_md2_19.orca.gbw
Input Perturbation             ... PbMACl3_mp2_md2_19.orca.pin.tmp
Wavefunction output            ... PbMACl3_mp2_md2_19.orca.pout.tmp
Perturbation mode              ... Real perturbation
Solver                         ... DIIS
   MaxDIIS                     ... 20
   Levelshift                  ...    3.000e-01 Eh
Max. number of iterations      ... 128
Convergence tolerance          ... 1.000e-08
Integral handling              ... Direct
COSX GridX                     ... 1
Number of perturbations        ... 1
Number of operators            ... 1
Orbital ranges used for CP-SCF:
 Operator 0:  Orbitals   0... 45  to  46...258
DFT calculation                         ... on
Exchange functional (SCF)               ... B88
Exchange functional (CP-SCF)            ... B88
   X-Alpha parameter    XAlpha (SCF)    ...  0.666667
   X-Alpha parameter    XAlpha (CP-SCF) ...  0.666667
   Becke's b parameter  XBeta (SCF)     ...  0.004200
   Becke's b parameter  XBeta (CP-SCF)  ...  0.004200
Correlation functional (SCF)            ... LYP
Correlation functional (CP-SCF)         ... LYP
 LDA part of GGA corr.  LDAOpt (SCF)    ... VWN-3
 LDA part of GGA corr.  LDAOpt (CP-SCF) ... VWN-3
Hybrid DFT                              ... on
   Exchange mixing (SCF)                ...  0.530
   Exchange mixing (CP-SCF)             ...  0.530
   GGA exch. scaling(SCF)               ...  0.470
   GGA exch. scaling (CP-SCF)           ...  0.470
   GGA corr. scaling (SCF)              ...  0.730
   GGA corr. scaling (CP-SCF)           ...  0.730
The RIJCOSX approximation is active
Variables per vector in CP-SCF ... 9798
Number of vectors sought       ... 1
Calculating the xc-kernel      ... done

Solving the CP-SCF equations by a DIIS algorithm

-----------------
CP-SCF ITERATIONS
-----------------
  Iteration   0: MaxR=  0.088215938
  Iteration   1: MaxR=  0.041709665
  Iteration   2: MaxR=  0.011817133
  Iteration   3: MaxR=  0.004698956
  Iteration   4: MaxR=  0.002039647
  Iteration   5: MaxR=  0.000773789
  Iteration   6: MaxR=  0.000308189
  Iteration   7: MaxR=  0.000091840
  Iteration   8: MaxR=  0.000034213
  Iteration   9: MaxR=  0.000009465
  Iteration  10: MaxR=  0.000003763
  Iteration  11: MaxR=  0.000001417
  Iteration  12: MaxR=  0.000000681
  Iteration  13: MaxR=  0.000000205
  Iteration  14: MaxR=  0.000000078
  Iteration  15: MaxR=  0.000000029
  Iteration  16: MaxR=  0.000000010
                              *** THE CP-SCF HAS CONVERGED *** 
done
Finalizing the relaxed density                   ... done
Transforming P to the AO basis                   ... done
Storing the relaxed density                      ... done

------------------------------------
ENERGY WEIGHTED DENSITY FINALIZATION
------------------------------------

Gathering the parts of the W-matrix              ... done
Forming the Z-density                            ... done
Transforming Z to the AO basis                   ... done
Calculating G(Z)                                 ... done
Finalizing the W-matrix                          ... done
Transforming W to the AO basis and storing       ... done
Entering the RIJONX and RIJCOSX sections
Starting the three-index derivative integrals:
Operator 0  - Memory available             ...  1000 MB
Operator 0  - Memory needed per MO         ...   1.0 MB
Operator 0  - Number of orbitals per batch ... 46
Operator 0  - Number of batches            ... 1

OPERATOR  0   PASS   0:  MOs     0 ...   45

----------------------------------
MP2 DERIVATIVE INTEGRAL GENERATION
----------------------------------


Input Correlated Electron Density   ... PbMACl3_mp2_md2_19.orca.pmp2re
Input Energy Weighted Density       ... PbMACl3_mp2_md2_19.orca.wmp2.tmp
Input SCF Electron Density          ... PbMACl3_mp2_md2_19.orca.scfp.tmp

One-Electron Terms    ...
  ECP gradient                                           ... One-Electron Terms done

-----------------------------------------------------------
MP2 COSX Grid Generation
-----------------------------------------------------------

General Integration Accuracy     IntAcc      ...  4.340
Radial Grid Type                 RadialGrid  ... Gauss-Chebyshev
Angular Grid (max. acc.)         AngularGrid ... Lebedev-302
Angular grid pruning method      GridPruning ... 3 (G Style)
Weight generation scheme         WeightScheme... Becke
Basis function cutoff            BFCut       ...    1.0000e-11
Integration weight cutoff        WCut        ...    1.0000e-14
Grids for H and He will be reduced by one unit

# of grid points (after initial pruning)     ...  57718 (   0.0 sec)
# of grid points (after weights+screening)   ...  54267 (   0.1 sec)
nearest neighbour list constructed           ...    0.0 sec
Grid point re-assignment to atoms done       ...    0.0 sec
Grid point division into batches done        ...    0.2 sec
Reduced shell lists constructed in    1.5 sec

Total number of grid points                  ...    54267
Total number of batches                      ...      854
Average number of points per batch           ...       63
Average number of grid points per atom       ...     4522
Average number of shells per batch           ...    57.96 (57.38%)
Average number of basis functions per batch  ...   154.24 (59.55%)
Average number of large shells per batch     ...    44.09 (76.08%)
Average number of large basis fcns per batch ...   114.35 (74.14%)
Maximum spatial batch extension              ...  38.69, 32.79, 34.66 au
Average spatial batch extension              ...   3.08,  3.10,  3.08 au

Overlap Fitting                  UseSFitting ... on
Two electron COSX terms .... 
Integration Timings:
Total Time                  =    97.6 sec
Basis fcn evaluation        =     0.8 sec
Density evaluation          =     1.7 sec
Integral evaluation         =    92.0 sec
K(P) evaluation             =     1.0 sec
                          .... COSX two electron terms done
COSX two-electron contribution to the gradient
     0:    -0.018045    -0.023629    -0.019768
     1:     0.059886     0.072247     0.043912
     2:     0.100189    -0.081160     0.107390
     3:    -0.104287     0.097689     0.089335
     4:     0.096351     0.099511    -0.096915
     5:    -0.113328    -0.119435     0.100801
     6:     0.096923    -0.107716    -0.105083
     7:    -0.113017     0.063766    -0.113833
     8:    -0.017204    -0.032455    -0.055044
     9:     0.058515    -0.033489     0.015149
    10:    -0.004366     0.063917    -0.027199
    11:    -0.042636     0.000577     0.061290
Exchange-correlation gradient    ... done
Dispersion correction            ... 
Entering the calculation of the dispersion correction...

Checking the input atom types...

Done
done

                *********************************************
                * UNRELAXED MP2 DENSITY POPULATION ANALYSIS *
                *********************************************

------------------------------------------------------------------------------
                           ORCA POPULATION ANALYSIS
------------------------------------------------------------------------------
Input electron density              ... PbMACl3_mp2_md2_19.orca.pmp2ur
BaseName (.gbw .S,...)              ... PbMACl3_mp2_md2_19.orca

                    ********************************
                    * MULLIKEN POPULATION ANALYSIS *
                    ********************************

-----------------------
MULLIKEN ATOMIC CHARGES
-----------------------
   0 C :   -0.266486
   1 N :   -0.316911
   2 H :    0.158438
   3 H :    0.160867
   4 H :    0.160123
   5 H :    0.299689
   6 H :    0.293463
   7 H :    0.295717
   8 Pb:    0.767840
   9 Cl:   -0.512398
  10 Cl:   -0.517252
  11 Cl:   -0.523091
Sum of atomic charges:   -0.0000000

--------------------------------
MULLIKEN REDUCED ORBITAL CHARGES
--------------------------------
  0 C s       :     3.280572  s :     3.280572
      pz      :     0.976370  p :     2.900746
      px      :     0.990992
      py      :     0.933385
      dz2     :     0.008792  d :     0.077915
      dxz     :     0.020018
      dyz     :     0.019701
      dx2y2   :     0.009779
      dxy     :     0.019625
      f0      :     0.000513  f :     0.007252
      f+1     :     0.000680
      f-1     :     0.000902
      f+2     :     0.000938
      f-2     :     0.002769
      f+3     :     0.000676
      f-3     :     0.000774
  1 N s       :     3.431376  s :     3.431376
      pz      :     1.274667  p :     3.824330
      px      :     1.282849
      py      :     1.266815
      dz2     :     0.007989  d :     0.058029
      dxz     :     0.014091
      dyz     :     0.013485
      dx2y2   :     0.008545
      dxy     :     0.013919
      f0      :     0.000250  f :     0.003175
      f+1     :     0.000305
      f-1     :     0.000348
      f+2     :     0.000372
      f-2     :     0.001273
      f+3     :     0.000307
      f-3     :     0.000319
  2 H s       :     0.818833  s :     0.818833
      pz      :     0.008605  p :     0.022729
      px      :     0.008104
      py      :     0.006019
  3 H s       :     0.816369  s :     0.816369
      pz      :     0.007244  p :     0.022764
      px      :     0.007689
      py      :     0.007830
  4 H s       :     0.817087  s :     0.817087
      pz      :     0.007149  p :     0.022791
      px      :     0.007714
      py      :     0.007928
  5 H s       :     0.661944  s :     0.661944
      pz      :     0.009409  p :     0.038367
      px      :     0.015684
      py      :     0.013273
  6 H s       :     0.660372  s :     0.660372
      pz      :     0.013632  p :     0.046165
      px      :     0.011351
      py      :     0.021182
  7 H s       :     0.657201  s :     0.657201
      pz      :     0.022379  p :     0.047082
      px      :     0.015288
      py      :     0.009416
  8 Pbs       :     3.904390  s :     3.904390
      pz      :     2.401049  p :     7.092034
      px      :     2.335891
      py      :     2.355094
      dz2     :     2.025511  d :    10.126876
      dxz     :     2.025111
      dyz     :     2.025841
      dx2y2   :     2.023861
      dxy     :     2.026552
      f0      :     0.016353  f :     0.108860
      f+1     :     0.017059
      f-1     :     0.013765
      f+2     :     0.016346
      f-2     :     0.011839
      f+3     :     0.016121
      f-3     :     0.017377
  9 Cls       :     5.948743  s :     5.948743
      pz      :     3.909267  p :    11.496648
      px      :     3.742269
      py      :     3.845112
      dz2     :     0.010638  d :     0.063132
      dxz     :     0.012486
      dyz     :     0.010402
      dx2y2   :     0.016318
      dxy     :     0.013287
      f0      :     0.000533  f :     0.003875
      f+1     :     0.000546
      f-1     :     0.000442
      f+2     :     0.000568
      f-2     :     0.000516
      f+3     :     0.000592
      f-3     :     0.000677
 10 Cls       :     5.949747  s :     5.949747
      pz      :     3.861473  p :    11.502186
      px      :     3.923178
      py      :     3.717536
      dz2     :     0.013064  d :     0.061576
      dxz     :     0.009882
      dyz     :     0.012459
      dx2y2   :     0.015392
      dxy     :     0.010780
      f0      :     0.000486  f :     0.003742
      f+1     :     0.000486
      f-1     :     0.000572
      f+2     :     0.000563
      f-2     :     0.000438
      f+3     :     0.000537
      f-3     :     0.000660
 11 Cls       :     5.948904  s :     5.948904
      pz      :     3.749454  p :    11.511811
      px      :     3.838369
      py      :     3.923988
      dz2     :     0.014573  d :     0.058751
      dxz     :     0.014517
      dyz     :     0.009961
      dx2y2   :     0.009912
      dxy     :     0.009787
      f0      :     0.000575  f :     0.003625
      f+1     :     0.000741
      f-1     :     0.000482
      f+2     :     0.000514
      f-2     :     0.000473
      f+3     :     0.000409
      f-3     :     0.000431


                     *******************************
                     * LOEWDIN POPULATION ANALYSIS *
                     *******************************

----------------------
LOEWDIN ATOMIC CHARGES
----------------------
   0 C :   -0.276499
   1 N :    0.066474
   2 H :    0.125731
   3 H :    0.126903
   4 H :    0.127151
   5 H :    0.181060
   6 H :    0.150701
   7 H :    0.143805
   8 Pb:   -0.122097
   9 Cl:   -0.152079
  10 Cl:   -0.177810
  11 Cl:   -0.193339

-------------------------------
LOEWDIN REDUCED ORBITAL CHARGES
-------------------------------
  0 C s       :     2.852595  s :     2.852595
      pz      :     1.030051  p :     3.073596
      px      :     1.039979
      py      :     1.003566
      dz2     :     0.030058  d :     0.311540
      dxz     :     0.081147
      dyz     :     0.083754
      dx2y2   :     0.034419
      dxy     :     0.082161
      f0      :     0.005460  f :     0.038768
      f+1     :     0.004120
      f-1     :     0.005939
      f+2     :     0.004599
      f-2     :     0.007482
      f+3     :     0.005157
      f-3     :     0.006010
  1 N s       :     3.001580  s :     3.001580
      pz      :     1.247376  p :     3.748797
      px      :     1.250745
      py      :     1.250676
      dz2     :     0.019785  d :     0.172274
      dxz     :     0.044268
      dyz     :     0.043624
      dx2y2   :     0.021306
      dxy     :     0.043291
      f0      :     0.001626  f :     0.010875
      f+1     :     0.001327
      f-1     :     0.001597
      f+2     :     0.001205
      f-2     :     0.001995
      f+3     :     0.001418
      f-3     :     0.001707
  2 H s       :     0.810185  s :     0.810185
      pz      :     0.023489  p :     0.064084
      px      :     0.022335
      py      :     0.018261
  3 H s       :     0.808977  s :     0.808977
      pz      :     0.019955  p :     0.064120
      px      :     0.022956
      py      :     0.021209
  4 H s       :     0.808688  s :     0.808688
      pz      :     0.021443  p :     0.064161
      px      :     0.021265
      py      :     0.021453
  5 H s       :     0.705128  s :     0.705128
      pz      :     0.031531  p :     0.113812
      px      :     0.043567
      py      :     0.038714
  6 H s       :     0.710116  s :     0.710116
      pz      :     0.040664  p :     0.139183
      px      :     0.036993
      py      :     0.061526
  7 H s       :     0.712175  s :     0.712175
      pz      :     0.066664  p :     0.144020
      px      :     0.046628
      py      :     0.030728
  8 Pbs       :     3.672688  s :     3.672688
      pz      :     2.558578  p :     7.566221
      px      :     2.495002
      py      :     2.512642
      dz2     :     2.127485  d :    10.627751
      dxz     :     2.131245
      dyz     :     2.101925
      dx2y2   :     2.153719
      dxy     :     2.113377
      f0      :     0.035676  f :     0.255437
      f+1     :     0.046332
      f-1     :     0.028777
      f+2     :     0.039239
      f-2     :     0.022965
      f+3     :     0.033527
      f-3     :     0.048920
  9 Cls       :     5.719106  s :     5.719106
      pz      :     3.850158  p :    11.342751
      px      :     3.716859
      py      :     3.775734
      dz2     :     0.012721  d :     0.084660
      dxz     :     0.018085
      dyz     :     0.012000
      dx2y2   :     0.025952
      dxy     :     0.015902
      f0      :     0.000787  f :     0.005562
      f+1     :     0.000648
      f-1     :     0.000467
      f+2     :     0.000973
      f-2     :     0.000660
      f+3     :     0.000853
      f-3     :     0.001173
 10 Cls       :     5.732665  s :     5.732665
      pz      :     3.798292  p :    11.359391
      px      :     3.865060
      py      :     3.696039
      dz2     :     0.018810  d :     0.080554
      dxz     :     0.010956
      dyz     :     0.013161
      dx2y2   :     0.026760
      dxy     :     0.010867
      f0      :     0.000671  f :     0.005201
      f+1     :     0.000650
      f-1     :     0.000906
      f+2     :     0.000697
      f-2     :     0.000450
      f+3     :     0.000582
      f-3     :     0.001245
 11 Cls       :     5.739017  s :     5.739017
      pz      :     3.721273  p :    11.375244
      px      :     3.784901
      py      :     3.869071
      dz2     :     0.023032  d :     0.074270
      dxz     :     0.020684
      dyz     :     0.010370
      dx2y2   :     0.010157
      dxy     :     0.010026
      f0      :     0.000835  f :     0.004809
      f+1     :     0.001431
      f-1     :     0.000531
      f+2     :     0.000622
      f-2     :     0.000507
      f+3     :     0.000418
      f-3     :     0.000466


                      *****************************
                      * MAYER POPULATION ANALYSIS *
                      *****************************

  NA   - Mulliken gross atomic population
  ZA   - Total nuclear charge
  QA   - Mulliken gross atomic charge
  VA   - Mayer's total valence
  BVA  - Mayer's bonded valence
  FA   - Mayer's free valence

  ATOM       NA         ZA         QA         VA         BVA        FA
  0 C      6.2665     6.0000    -0.2665     3.8893     3.7745     0.1149
  1 N      7.3169     7.0000    -0.3169     3.4043     3.2582     0.1461
  2 H      0.8416     1.0000     0.1584     0.9646     0.9460     0.0185
  3 H      0.8391     1.0000     0.1609     0.9644     0.9460     0.0184
  4 H      0.8399     1.0000     0.1601     0.9677     0.9492     0.0185
  5 H      0.7003     1.0000     0.2997     0.9497     0.9292     0.0205
  6 H      0.7065     1.0000     0.2935     0.9636     0.9428     0.0208
  7 H      0.7043     1.0000     0.2957     0.9663     0.9453     0.0211
  8 Pb    21.2322    22.0000     0.7678     2.3083     1.9430     0.3653
  9 Cl    17.5124    17.0000    -0.5124     1.0544     0.7942     0.2601
 10 Cl    17.5173    17.0000    -0.5173     1.0495     0.7892     0.2603
 11 Cl    17.5231    17.0000    -0.5231     1.0388     0.7784     0.2604

  Mayer bond orders larger than 0.1
B(  0-C ,  1-N ) :   0.8812 B(  0-C ,  2-H ) :   0.9545 B(  0-C ,  3-H ) :   0.9545 
B(  0-C ,  4-H ) :   0.9549 B(  1-N ,  5-H ) :   0.8259 B(  1-N ,  6-H ) :   0.7934 
B(  1-N ,  7-H ) :   0.7820 B(  6-H ,  9-Cl) :   0.1489 B(  7-H , 10-Cl) :   0.1665 
B(  8-Pb,  9-Cl) :   0.6334 B(  8-Pb, 10-Cl) :   0.6191 B(  8-Pb, 11-Cl) :   0.6661 



                *******************************************
                * RELAXED MP2 DENSITY POPULATION ANALYSIS *
                *******************************************

------------------------------------------------------------------------------
                           ORCA POPULATION ANALYSIS
------------------------------------------------------------------------------
Input electron density              ... PbMACl3_mp2_md2_19.orca.pmp2re
BaseName (.gbw .S,...)              ... PbMACl3_mp2_md2_19.orca

                    ********************************
                    * MULLIKEN POPULATION ANALYSIS *
                    ********************************

-----------------------
MULLIKEN ATOMIC CHARGES
-----------------------
   0 C :   -0.284310
   1 N :   -0.311546
   2 H :    0.161939
   3 H :    0.164397
   4 H :    0.163690
   5 H :    0.293621
   6 H :    0.287021
   7 H :    0.288749
   8 Pb:    0.716418
   9 Cl:   -0.488210
  10 Cl:   -0.492883
  11 Cl:   -0.498885
Sum of atomic charges:   -0.0000000

--------------------------------
MULLIKEN REDUCED ORBITAL CHARGES
--------------------------------
  0 C s       :     3.283232  s :     3.283232
      pz      :     0.982961  p :     2.920285
      px      :     0.997081
      py      :     0.940243
      dz2     :     0.008971  d :     0.073704
      dxz     :     0.018460
      dyz     :     0.018186
      dx2y2   :     0.009964
      dxy     :     0.018122
      f0      :     0.000494  f :     0.007090
      f+1     :     0.000671
      f-1     :     0.000888
      f+2     :     0.000930
      f-2     :     0.002686
      f+3     :     0.000662
      f-3     :     0.000759
  1 N s       :     3.432245  s :     3.432245
      pz      :     1.273034  p :     3.819439
      px      :     1.281339
      py      :     1.265067
      dz2     :     0.008186  d :     0.056741
      dxz     :     0.013541
      dyz     :     0.012951
      dx2y2   :     0.008722
      dxy     :     0.013341
      f0      :     0.000247  f :     0.003121
      f+1     :     0.000304
      f-1     :     0.000349
      f+2     :     0.000372
      f-2     :     0.001227
      f+3     :     0.000303
      f-3     :     0.000319
  2 H s       :     0.815704  s :     0.815704
      pz      :     0.008426  p :     0.022358
      px      :     0.007958
      py      :     0.005974
  3 H s       :     0.813215  s :     0.813215
      pz      :     0.007145  p :     0.022389
      px      :     0.007549
      py      :     0.007695
  4 H s       :     0.813895  s :     0.813895
      pz      :     0.007042  p :     0.022415
      px      :     0.007588
      py      :     0.007785
  5 H s       :     0.668396  s :     0.668396
      pz      :     0.009335  p :     0.037983
      px      :     0.015518
      py      :     0.013130
  6 H s       :     0.667279  s :     0.667279
      pz      :     0.013526  p :     0.045701
      px      :     0.011233
      py      :     0.020942
  7 H s       :     0.664624  s :     0.664624
      pz      :     0.022118  p :     0.046626
      px      :     0.015126
      py      :     0.009383
  8 Pbs       :     3.920442  s :     3.920442
      pz      :     2.408134  p :     7.129793
      px      :     2.352756
      py      :     2.368903
      dz2     :     2.024636  d :    10.126130
      dxz     :     2.024747
      dyz     :     2.026712
      dx2y2   :     2.022376
      dxy     :     2.027659
      f0      :     0.016107  f :     0.107217
      f+1     :     0.016698
      f-1     :     0.013592
      f+2     :     0.016121
      f-2     :     0.011762
      f+3     :     0.015956
      f-3     :     0.016982
  9 Cls       :     5.949245  s :     5.949245
      pz      :     3.902969  p :    11.471784
      px      :     3.734418
      py      :     3.834397
      dz2     :     0.010580  d :     0.063286
      dxz     :     0.012618
      dyz     :     0.010506
      dx2y2   :     0.016485
      dxy     :     0.013097
      f0      :     0.000536  f :     0.003895
      f+1     :     0.000549
      f-1     :     0.000443
      f+2     :     0.000571
      f-2     :     0.000519
      f+3     :     0.000596
      f-3     :     0.000681
 10 Cls       :     5.950272  s :     5.950272
      pz      :     3.851213  p :    11.477158
      px      :     3.917319
      py      :     3.708626
      dz2     :     0.013207  d :     0.061690
      dxz     :     0.009993
      dyz     :     0.012354
      dx2y2   :     0.015308
      dxy     :     0.010828
      f0      :     0.000489  f :     0.003762
      f+1     :     0.000492
      f-1     :     0.000574
      f+2     :     0.000566
      f-2     :     0.000440
      f+3     :     0.000543
      f-3     :     0.000659
 11 Cls       :     5.949541  s :     5.949541
      pz      :     3.740417  p :    11.487036
      px      :     3.828807
      py      :     3.917811
      dz2     :     0.014636  d :     0.058669
      dxz     :     0.014256
      dyz     :     0.010033
      dx2y2   :     0.009897
      dxy     :     0.009846
      f0      :     0.000579  f :     0.003639
      f+1     :     0.000740
      f-1     :     0.000486
      f+2     :     0.000514
      f-2     :     0.000476
      f+3     :     0.000410
      f-3     :     0.000434


                     *******************************
                     * LOEWDIN POPULATION ANALYSIS *
                     *******************************

----------------------
LOEWDIN ATOMIC CHARGES
----------------------
   0 C :   -0.286472
   1 N :    0.062544
   2 H :    0.127682
   3 H :    0.128845
   4 H :    0.129089
   5 H :    0.179742
   6 H :    0.149239
   7 H :    0.142275
   8 Pb:   -0.146995
   9 Cl:   -0.140042
  10 Cl:   -0.165289
  11 Cl:   -0.180617

-------------------------------
LOEWDIN REDUCED ORBITAL CHARGES
-------------------------------
  0 C s       :     2.853929  s :     2.853929
      pz      :     1.034487  p :     3.086919
      px      :     1.044291
      py      :     1.008141
      dz2     :     0.030259  d :     0.307093
      dxz     :     0.079570
      dyz     :     0.082107
      dx2y2   :     0.034673
      dxy     :     0.080484
      f0      :     0.005440  f :     0.038532
      f+1     :     0.004099
      f-1     :     0.005921
      f+2     :     0.004566
      f-2     :     0.007380
      f+3     :     0.005128
      f-3     :     0.005998
  1 N s       :     3.003708  s :     3.003708
      pz      :     1.247891  p :     3.750371
      px      :     1.251644
      py      :     1.250836
      dz2     :     0.020072  d :     0.172427
      dxz     :     0.044104
      dyz     :     0.043516
      dx2y2   :     0.021579
      dxy     :     0.043156
      f0      :     0.001644  f :     0.010950
      f+1     :     0.001333
      f-1     :     0.001608
      f+2     :     0.001206
      f-2     :     0.002012
      f+3     :     0.001429
      f-3     :     0.001719
  2 H s       :     0.808149  s :     0.808149
      pz      :     0.023472  p :     0.064170
      px      :     0.022343
      py      :     0.018355
  3 H s       :     0.806956  s :     0.806956
      pz      :     0.020001  p :     0.064200
      px      :     0.022965
      py      :     0.021234
  4 H s       :     0.806681  s :     0.806681
      pz      :     0.021481  p :     0.064230
      px      :     0.021283
      py      :     0.021466
  5 H s       :     0.706537  s :     0.706537
      pz      :     0.031476  p :     0.113720
      px      :     0.043548
      py      :     0.038696
  6 H s       :     0.711733  s :     0.711733
      pz      :     0.040679  p :     0.139028
      px      :     0.036937
      py      :     0.061412
  7 H s       :     0.713847  s :     0.713847
      pz      :     0.066542  p :     0.143878
      px      :     0.046613
      py      :     0.030723
  8 Pbs       :     3.686583  s :     3.686583
      pz      :     2.560055  p :     7.586244
      px      :     2.505881
      py      :     2.520308
      dz2     :     2.125276  d :    10.620917
      dxz     :     2.129509
      dyz     :     2.101710
      dx2y2   :     2.150998
      dxy     :     2.113424
      f0      :     0.035333  f :     0.253251
      f+1     :     0.045918
      f-1     :     0.028501
      f+2     :     0.038990
      f-2     :     0.022774
      f+3     :     0.033238
      f-3     :     0.048497
  9 Cls       :     5.722463  s :     5.722463
      pz      :     3.845358  p :    11.325943
      px      :     3.712329
      py      :     3.768256
      dz2     :     0.012850  d :     0.085971
      dxz     :     0.018377
      dyz     :     0.012152
      dx2y2   :     0.026543
      dxy     :     0.016049
      f0      :     0.000799  f :     0.005666
      f+1     :     0.000663
      f-1     :     0.000470
      f+2     :     0.000986
      f-2     :     0.000672
      f+3     :     0.000869
      f-3     :     0.001207
 10 Cls       :     5.735973  s :     5.735973
      pz      :     3.791159  p :    11.342328
      px      :     3.860582
      py      :     3.690587
      dz2     :     0.019144  d :     0.081696
      dxz     :     0.011078
      dyz     :     0.013253
      dx2y2   :     0.027220
      dxy     :     0.011001
      f0      :     0.000684  f :     0.005292
      f+1     :     0.000657
      f-1     :     0.000920
      f+2     :     0.000712
      f-2     :     0.000452
      f+3     :     0.000592
      f-3     :     0.001275
 11 Cls       :     5.742299  s :     5.742299
      pz      :     3.715679  p :    11.358179
      px      :     3.778162
      py      :     3.864339
      dz2     :     0.023471  d :     0.075242
      dxz     :     0.020961
      dyz     :     0.010489
      dx2y2   :     0.010210
      dxy     :     0.010111
      f0      :     0.000849  f :     0.004896
      f+1     :     0.001474
      f-1     :     0.000537
      f+2     :     0.000634
      f-2     :     0.000513
      f+3     :     0.000420
      f-3     :     0.000469


                      *****************************
                      * MAYER POPULATION ANALYSIS *
                      *****************************

  NA   - Mulliken gross atomic population
  ZA   - Total nuclear charge
  QA   - Mulliken gross atomic charge
  VA   - Mayer's total valence
  BVA  - Mayer's bonded valence
  FA   - Mayer's free valence

  ATOM       NA         ZA         QA         VA         BVA        FA
  0 C      6.2843     6.0000    -0.2843     3.8910     3.7765     0.1145
  1 N      7.3115     7.0000    -0.3115     3.4120     3.2663     0.1456
  2 H      0.8381     1.0000     0.1619     0.9637     0.9452     0.0185
  3 H      0.8356     1.0000     0.1644     0.9635     0.9451     0.0184
  4 H      0.8363     1.0000     0.1637     0.9668     0.9484     0.0184
  5 H      0.7064     1.0000     0.2936     0.9564     0.9360     0.0204
  6 H      0.7130     1.0000     0.2870     0.9698     0.9492     0.0206
  7 H      0.7113     1.0000     0.2887     0.9731     0.9522     0.0209
  8 Pb    21.2836    22.0000     0.7164     2.3858     2.0258     0.3601
  9 Cl    17.4882    17.0000    -0.4882     1.0982     0.8394     0.2588
 10 Cl    17.4929    17.0000    -0.4929     1.0933     0.8344     0.2589
 11 Cl    17.4989    17.0000    -0.4989     1.0817     0.8227     0.2590

  Mayer bond orders larger than 0.1
B(  0-C ,  1-N ) :   0.8893 B(  0-C ,  2-H ) :   0.9516 B(  0-C ,  3-H ) :   0.9517 
B(  0-C ,  4-H ) :   0.9521 B(  1-N ,  5-H ) :   0.8230 B(  1-N ,  6-H ) :   0.7891 
B(  1-N ,  7-H ) :   0.7774 B(  5-H , 11-Cl) :   0.1051 B(  6-H ,  9-Cl) :   0.1594 
B(  7-H , 10-Cl) :   0.1774 B(  8-Pb,  9-Cl) :   0.6586 B(  8-Pb, 10-Cl) :   0.6445 
B(  8-Pb, 11-Cl) :   0.6941 


-------
TIMINGS
-------

Total time                :  571.897 sec
Integral trafo            :    1.941 sec (  0.3%)
I/O of integrals          :    0.235 sec (  0.0%)
K(i,j) Operators          :    6.253 sec (  1.1%)
T(i,j) pair energies      :    1.151 sec (  0.2%)
V-calculation             :    0.013 sec (  0.0%)
V**(-1/2)                 :    0.032 sec (  0.0%)
Gamma(ia|P)               :    5.586 sec (  1.0%)
Gamma-Trafo               :    0.802 sec (  0.1%)
D(virtual)                :    2.475 sec (  0.4%)
D(internal)               :    4.128 sec (  0.7%)
W(virtual)                :    5.129 sec (  0.9%)
W(internal)               :   14.214 sec (  2.5%)
L(virtual)                :    5.926 sec (  1.0%)
L(internal)               :    0.269 sec (  0.0%)
G(D)                      :   14.570 sec (  2.5%)
G(Z)                      :   17.193 sec (  3.0%)
Z-Vector Solution         :  369.007 sec ( 64.5%)
Z-Vector Solution         :  369.007 sec ( 64.5%)
3-Index Derivative 
+ Separable RIJ part      :    4.546 sec (  0.8%)
2-Index Derivative 
+ Separable RIJ part      :    0.036 sec (  0.0%)
Separable Gradient (COSX) :  116.774 sec ( 20.4%)


---------------------------------------
MP2 TOTAL ENERGY:    -1669.603393647 Eh
---------------------------------------

The final MP2 gradient
  0:   0.00046615  -0.00015712  -0.00060658
  1:   0.00374897   0.00253828  -0.01548718
  2:   0.00247536  -0.00199165   0.00322846
  3:  -0.00277550   0.00258117   0.00259178
  4:   0.00323538   0.00298359  -0.00200540
  5:  -0.00831338  -0.01065846   0.00247705
  6:  -0.00381152  -0.00423239  -0.01055307
  7:  -0.00572979  -0.01025131  -0.00344395
  8:   0.03800610   0.03231237   0.03940591
  9:  -0.02631066   0.00854763  -0.00541091
 10:  -0.00238302  -0.01872763   0.00384872
 11:   0.00046271  -0.00311798  -0.01400154

-----------------------------------
NORM OF THE MP2 GRADIENT:  0.078877
-----------------------------------

Entering the calculation of the dispersion correction...

Checking the input atom types...

Done


-------------------------------------------------------------------------------
                          DFT DISPERSION CORRECTION                            
                                                                               
                                DFTD3 V2.1  Rev 6                               
                          USING Becke-Johnson damping                          
-------------------------------------------------------------------------------
The B2PLYP functional is recognized
Active option DFTDOPT                   ...         4   

molecular C6(AA) [au] = 4852.784338 


            DFT-D V3
 parameters
 s6 scaling factor         :     0.6400 
 a1 scaling factor         :     0.3065 
 s8 scaling factor         :     0.9147 
 a2 scaling factor         :     5.0570 
 ad hoc parameters k1-k3   :    16.0000     1.3333    -4.0000 

 Edisp/kcal,au: -9.068440163639  -0.014451477740 
 E6   /kcal   :  -4.156217103 
 E8   /kcal   :  -4.912223060 
 % E8         :  54.168335146 

-------------------------   ----------------
Dispersion correction           -0.014451478
-------------------------   ----------------


-------------------------   --------------------
FINAL SINGLE POINT ENERGY     -1669.617845124306
-------------------------   --------------------


                            ***************************************
                            *     ORCA property calculations      *
                            ***************************************


  WARNING: The energy has been calculated at the MP2 level but the densities
           used in the property calculations are still SCF densities
           MP2 response densities have not been calculated 
           use %mp2 Density relaxed end
           or  %mp2 Density unrelaxed end

                                    ---------------------
                                    Active property flags
                                    ---------------------
   (+) Dipole Moment


------------------------------------------------------------------------------
                       ORCA ELECTRIC PROPERTIES CALCULATION
------------------------------------------------------------------------------

Dipole Moment Calculation                       ... on
Quadrupole Moment Calculation                   ... off
Polarizability Calculation                      ... off
GBWName                                         ... PbMACl3_mp2_md2_19.orca.gbw
Electron density file                           ... PbMACl3_mp2_md2_19.orca.scfp.tmp

-------------
DIPOLE MOMENT
-------------
                                X             Y             Z
Electronic contribution:    -52.57884     -68.50467     -80.52409
Nuclear contribution   :     53.78266      69.47619      81.42403
                        -----------------------------------------
Total Dipole Moment    :      1.20382       0.97152       0.89994
                        -----------------------------------------
Magnitude (a.u.)       :      1.78967
Magnitude (Debye)      :      4.54897


                         *** MP2 UNRELAXED DENSITY ***

------------------------------------------------------------------------------
                       ORCA ELECTRIC PROPERTIES CALCULATION
------------------------------------------------------------------------------

Dipole Moment Calculation                       ... on
Quadrupole Moment Calculation                   ... off
Polarizability Calculation                      ... off
GBWName                                         ... PbMACl3_mp2_md2_19.orca.gbw
Electron density file                           ... PbMACl3_mp2_md2_19.orca.pmp2ur

-------------
DIPOLE MOMENT
-------------
                                X             Y             Z
Electronic contribution:    -52.58047     -68.50185     -80.51884
Nuclear contribution   :     53.78266      69.47619      81.42403
                        -----------------------------------------
Total Dipole Moment    :      1.20219       0.97434       0.90519
                        -----------------------------------------
Magnitude (a.u.)       :      1.79275
Magnitude (Debye)      :      4.55681


                           *** MP2 RELAXED DENSITY ***

------------------------------------------------------------------------------
                       ORCA ELECTRIC PROPERTIES CALCULATION
------------------------------------------------------------------------------

Dipole Moment Calculation                       ... on
Quadrupole Moment Calculation                   ... off
Polarizability Calculation                      ... off
GBWName                                         ... PbMACl3_mp2_md2_19.orca.gbw
Electron density file                           ... PbMACl3_mp2_md2_19.orca.pmp2re

-------------
DIPOLE MOMENT
-------------
                                X             Y             Z
Electronic contribution:    -52.61694     -68.53317     -80.55313
Nuclear contribution   :     53.78266      69.47619      81.42403
                        -----------------------------------------
Total Dipole Moment    :      1.16571       0.94302       0.87089
                        -----------------------------------------
Magnitude (a.u.)       :      1.73396
Magnitude (Debye)      :      4.40738


Timings for individual modules:

Sum of individual times         ...      884.937 sec (=  14.749 min)
GTO integral calculation        ...        0.633 sec (=   0.011 min)   0.1 %
SCF iterations                  ...      312.223 sec (=   5.204 min)  35.3 %
MP2 module                      ...      572.081 sec (=   9.535 min)  64.6 %
                             ****ORCA TERMINATED NORMALLY****
TOTAL RUN TIME: 0 days 0 hours 14 minutes 45 seconds 463 msec
