
                                 *****************
                                 * O   R   C   A *
                                 *****************

           --- An Ab Initio, DFT and Semiempirical electronic structure package ---

                  #######################################################
                  #                        -***-                        #
                  #  Department of molecular theory and spectroscopy    #
                  #              Directorship: Frank Neese              #
                  # Max Planck Institute for Chemical Energy Conversion #
                  #                  D-45470 Muelheim/Ruhr              #
                  #                       Germany                       #
                  #                                                     #
                  #                  All rights reserved                #
                  #                        -***-                        #
                  #######################################################


                         Program Version 3.0.3 - RELEASE   -


 With contributions from (in alphabetic order):
   Ute Becker             : Parallelization
   Dmytro Bykov           : SCF Hessian
   Dmitry Ganyushin       : Spin-Orbit,Spin-Spin,Magnetic field MRCI
   Andreas Hansen         : Spin unrestricted coupled pair/coupled cluster methods
   Dimitrios Liakos       : Extrapolation schemes; parallel MDCI
   Robert Izsak           : Overlap fitted RIJCOSX, COSX-SCS-MP3
   Christian Kollmar      : KDIIS, OOCD, Brueckner-CCSD(T), CCSD density
   Simone Kossmann        : Meta GGA functionals, TD-DFT gradient, OOMP2, MP2 Hessian
   Taras Petrenko         : DFT Hessian,TD-DFT gradient, ASA and ECA modules, normal mode analysis, Resonance Raman, ABS, FL, XAS/XES, NRVS
   Christoph Reimann      : Effective Core Potentials
   Michael Roemelt        : Restricted open shell CIS
   Christoph Riplinger    : Improved optimizer, TS searches, QM/MM, DLPNO-CCSD
   Barbara Sandhoefer     : DKH picture change effects
   Igor Schapiro          : Molecular dynamics
   Kantharuban Sivalingam : CASSCF convergence, NEVPT2
   Boris Wezisla          : Elementary symmetry handling
   Frank Wennmohs         : Technical directorship


 We gratefully acknowledge several colleagues who have allowed us to
 interface, adapt or use parts of their codes:
   Stefan Grimme, W. Hujo, H. Kruse, T. Risthaus : VdW corrections, initial TS optimization,
                                                   DFT functionals, gCP
   Ed Valeev                                     : LibInt (2-el integral package), F12 methods
   Garnet Chan, S. Sharma, R. Olivares           : DMRG
   Ulf Ekstrom                                   : XCFun DFT Library
   Mihaly Kallay                                 : mrcc  (arbitrary order and MRCC methods)
   Andreas Klamt, Michael Diedenhofen            : otool_cosmo (COSMO solvation model)
   Frank Weinhold                                : gennbo (NPA and NBO analysis)
   Christopher J. Cramer and Donald G. Truhlar   : smd solvation model


 Your calculation uses the libint2 library for the computation of 2-el integrals
 For citations please refer to: http://libint.valeyev.net

 This ORCA versions uses:
   CBLAS   interface :  Fast vector & matrix operations
   LAPACKE interface :  Fast linear algebra routines
   SCALAPACK package :  Parallel linear algebra routines


Your calculation utilizes the basis: Ahlrichs-TZV
Cite in your paper:
H - Kr: A. Schaefer, H. Horn and R. Ahlrichs, J. Chem. Phys. 97, 2571 (1992).

The def2-TZV basis will be loaded
Cite in your paper:
 	F. Weigend, R. Ahlrichs, Phys. Chem. Chem. Phys. 2005, 7, 3297.

Your calculation utilizes the atom-pairwise dispersion correction
with the Becke-Johnson damping scheme (D3BJ)
Cite in your paper:
S.Grimme, S.Ehrlich, L.Goerigk, J Comput Chem, (2011), 32, 1456–1465 
S.Grimme, J.Antony, S.Ehrlich and H.Krieg, J.Chem.Phys., 132, (2010), 154104 
   

================================================================================
                                        WARNINGS
                       Please study these warnings very carefully!
================================================================================

WARNING: The RI method has been chosen with no auxiliary basis (AUX or GTOAUX in BASIS block)
        Standard TZV/J expansion basis used (GTOAUX=TZV_J)

Now building the actual basis set
cite the ECPs for Pb [SD(60,MDF)] as follows:
  B. Metz, H. Stoll, M. Dolg, J. Chem. Phys. 113, 2563 (2000).

ECP parameters for Pb [SD(60,MDF)] have been obtained from:
  pseudopotential library of the Stuttgart/Cologne group
  http://www.theochem.uni-stuttgart.de/pseudopotentials/

cite the ECP basis sets for Pb [DEF2-TZVP] as follows:
  F. Weigend, R. Ahlrichs; Phys. Chem. Chem. Phys. 7, 3297(2005).

ECP basis sets for Pb [DEF2-TZVP] have been obtained from:
  Turbomole basis set library
  ftp://ftp.chemie.uni-karlsruhe.de/pub/basen/



INFO   : the flag for use of LIBINT has been found!

================================================================================
                                       INPUT FILE
================================================================================
NAME = Pb2Cl11_6NH3CH3_-1_mp2_sp2_2.orca
|  1> ! RIJCOSX RI-B2PLYP D3BJ def2-TZVP ECP{def2-TZVP} TIGHTSCF Grid5 FinalGrid6 MORead
|  2> %maxcore 4000
|  3> %moinp "previous.gbw"
|  4> *xyz -1 1
|  5> C 3.321334 3.304660 2.430157 
|  6> N 2.356571 2.328752 1.891132 
|  7> H 3.929482 2.825089 3.202898 
|  8> H 2.779051 4.148026 2.867131 
|  9> H 3.970752 3.667461 1.628343 
| 10> H 1.712427 1.919960 2.626954 
| 11> H 2.798301 1.476145 1.466883 
| 12> H 1.726191 2.717573 1.143366 
| 13> Pb 0.034436 -0.205450 0.698731 
| 14> Cl 2.775367 -0.507494 0.814217 
| 15> Cl 0.255653 2.913998 -0.258710 
| 16> Cl 0.346069 0.632050 3.511534 
| 17> Cl -3.305142 -0.286613 -0.036653 
| 18> Cl -0.011275 -1.171242 -2.199043 
| 19> Cl -0.581255 -2.762400 1.867145 
| 20> N -2.185808 -3.054212 -0.959335 
| 21> C -3.018599 -3.892984 -1.852407 
| 22> H -2.697680 -2.199715 -0.614166 
| 23> H -1.345672 -2.675212 -1.453465 
| 24> H -3.863008 -4.284793 -1.282203 
| 25> H -2.403708 -4.719219 -2.215644 
| 26> H -3.366846 -3.277457 -2.686457 
| 27> H -1.855008 -3.591944 -0.148281 
| 28> Cl 3.298132 -4.820991 1.520203 
| 29> Cl 0.980759 -5.256225 4.867800 
| 30> Pb 0.314131 -5.457300 1.493511 
| 31> N 2.161285 -2.658962 3.515767 
| 32> C 3.006676 -1.740565 4.311813 
| 33> H 2.698023 -3.156655 2.770259 
| 34> H 1.390718 -2.163400 3.045648 
| 35> H 3.799912 -2.319606 4.793333 
| 36> H 2.384520 -1.246095 5.060700 
| 37> H 3.427402 -0.991699 3.638613 
| 38> H 1.731703 -3.427574 4.095222 
| 39> Cl 0.327092 -5.430636 -1.276542 
| 40> H -2.444419 -8.567556 -2.232135 
| 41> H -0.598109 -7.323819 -1.165277 
| 42> H -1.004862 -9.612620 -2.073837 
| 43> C -1.775778 -9.065444 -1.523604 
| 44> N -1.147567 -8.055720 -0.651573 
| 45> Cl -2.537481 -5.960337 1.060942 
| 46> H -1.842497 -7.478800 -0.094428 
| 47> H -0.483324 -8.457680 0.056334 
| 48> H -2.352281 -9.766255 -0.913124 
| 49> Cl 0.914590 -8.589722 1.607679 
| 50> H -3.020852 1.137851 -3.759427 
| 51> H -2.443836 0.935457 -1.388789 
| 52> C -2.421148 1.915242 -3.276964 
| 53> H -3.072919 2.741318 -2.978333 
| 54> N -1.760461 1.345922 -2.088558 
| 55> H -1.130632 0.530708 -2.323343 
| 56> H -1.666594 2.281032 -3.979276 
| 57> H -1.165922 2.035435 -1.571092 
| 58> H 3.622704 -8.508951 4.939340 
| 59> H 2.344608 -7.817453 2.937850 
| 60> C 4.032137 -7.791101 4.222778 
| 61> H 4.696529 -8.309487 3.525223 
| 62> N 2.932785 -7.146076 3.481813 
| 63> H 2.277052 -6.592786 4.110347 
| 64> H 4.597499 -7.025510 4.762093 
| 65> H 3.269849 -6.425562 2.787786 
| 66> *
| 67> 
| 68>                          ****END OF INPUT****
================================================================================

                       ****************************
                       * Single Point Calculation *
                       ****************************

---------------------------------
CARTESIAN COORDINATES (ANGSTROEM)
---------------------------------
  C      3.321334    3.304660    2.430157
  N      2.356571    2.328752    1.891132
  H      3.929482    2.825089    3.202898
  H      2.779051    4.148026    2.867131
  H      3.970752    3.667461    1.628343
  H      1.712427    1.919960    2.626954
  H      2.798301    1.476145    1.466883
  H      1.726191    2.717573    1.143366
  Pb     0.034436   -0.205450    0.698731
  Cl     2.775367   -0.507494    0.814217
  Cl     0.255653    2.913998   -0.258710
  Cl     0.346069    0.632050    3.511534
  Cl    -3.305142   -0.286613   -0.036653
  Cl    -0.011275   -1.171242   -2.199043
  Cl    -0.581255   -2.762400    1.867145
  N     -2.185808   -3.054212   -0.959335
  C     -3.018599   -3.892984   -1.852407
  H     -2.697680   -2.199715   -0.614166
  H     -1.345672   -2.675212   -1.453465
  H     -3.863008   -4.284793   -1.282203
  H     -2.403708   -4.719219   -2.215644
  H     -3.366846   -3.277457   -2.686457
  H     -1.855008   -3.591944   -0.148281
  Cl     3.298132   -4.820991    1.520203
  Cl     0.980759   -5.256225    4.867800
  Pb     0.314131   -5.457300    1.493511
  N      2.161285   -2.658962    3.515767
  C      3.006676   -1.740565    4.311813
  H      2.698023   -3.156655    2.770259
  H      1.390718   -2.163400    3.045648
  H      3.799912   -2.319606    4.793333
  H      2.384520   -1.246095    5.060700
  H      3.427402   -0.991699    3.638613
  H      1.731703   -3.427574    4.095222
  Cl     0.327092   -5.430636   -1.276542
  H     -2.444419   -8.567556   -2.232135
  H     -0.598109   -7.323819   -1.165277
  H     -1.004862   -9.612620   -2.073837
  C     -1.775778   -9.065444   -1.523604
  N     -1.147567   -8.055720   -0.651573
  Cl    -2.537481   -5.960337    1.060942
  H     -1.842497   -7.478800   -0.094428
  H     -0.483324   -8.457680    0.056334
  H     -2.352281   -9.766255   -0.913124
  Cl     0.914590   -8.589722    1.607679
  H     -3.020852    1.137851   -3.759427
  H     -2.443836    0.935457   -1.388789
  C     -2.421148    1.915242   -3.276964
  H     -3.072919    2.741318   -2.978333
  N     -1.760461    1.345922   -2.088558
  H     -1.130632    0.530708   -2.323343
  H     -1.666594    2.281032   -3.979276
  H     -1.165922    2.035435   -1.571092
  H      3.622704   -8.508951    4.939340
  H      2.344608   -7.817453    2.937850
  C      4.032137   -7.791101    4.222778
  H      4.696529   -8.309487    3.525223
  N      2.932785   -7.146076    3.481813
  H      2.277052   -6.592786    4.110347
  H      4.597499   -7.025510    4.762093
  H      3.269849   -6.425562    2.787786

----------------------------
CARTESIAN COORDINATES (A.U.)
----------------------------
  NO LB      ZA    FRAG    MASS        X           Y           Z
   0 C     6.0000    0    12.011          6.276411659281206          6.244902365724204          4.592331192431667
   1 N     7.0000    0    14.007          4.453273805140938          4.400703513821383          3.573721563094765
   2 H     1.0000    0     1.008          7.425644828173148          5.338644513953455          6.052600054884109
   3 H     1.0000    0     1.008          5.251645302199988          7.838633136384834          5.418092380075772
   4 H     1.0000    0     1.008          7.503633825720078          6.930496896836967          3.077122322087733
   5 H     1.0000    0     1.008          3.236018054332367          3.628198588083447          4.964223626408968
   6 H     1.0000    0     1.008          5.288022530277972          2.789509783957186          2.772007140504807
   7 H     1.0000    0     1.008          3.262028244839660          5.135468718938777          2.160648610837006
   8 Pb   22.0000*   0   207.200  0.065074609147712  -0.388244234214121  1.320410231280930
   9 Cl   17.0000    0    35.453          5.244683551122622         -0.959024674608232          1.538647143582960
  10 Cl   17.0000    0    35.453          0.483114155315370          5.506658174794259         -0.488891048106767
  11 Cl   17.0000    0    35.453          0.653975633439994          1.194401402944927          6.635837569953029
  12 Cl   17.0000    0    35.453         -6.245813213720754         -0.541620076421572         -0.069264131986616
  13 Cl   17.0000    0    35.453         -0.021306662159962         -2.213326616546194         -4.155589026716592
  14 Cl   17.0000    0    35.453         -1.098412763972397         -5.220179472344065          3.528392702320395
  15 N     7.0000    0    14.007         -4.130578501334144         -5.771624234935894         -1.812880420685344
  16 C     6.0000    0    12.011         -5.704325418128557         -7.356673603737290         -3.500541918558664
  17 H     1.0000    0     1.008         -5.097876396956682         -4.156858922678586         -1.160605540765880
  18 H     1.0000    0     1.008         -2.542951546086079         -5.055418030179740         -2.746650795239852
  19 H     1.0000    0     1.008         -7.300027173146867         -8.097085310542841         -2.423012518092230
  20 H     1.0000    0     1.008         -4.542349825915584         -8.918031475997715         -4.186960370265818
  21 H     1.0000    0     1.008         -6.362416875088230         -6.193496145703143         -5.076668000555684
  22 H     1.0000    0     1.008         -3.505457096232993         -6.787790448381636         -0.280210480863977
  23 Cl   17.0000    0    35.453          6.232566233521966         -9.110352684099150          2.872767337965489
  24 Cl   17.0000    0    35.453          1.853365913378473         -9.932825748270231          9.198808874701868
  25 Pb   22.0000*   0   207.200  0.593621560174817  -10.312802430648446  2.822326767998863
  26 N     7.0000    0    14.007          4.084236747351992         -5.024709980503519          6.643836780677917
  27 C     6.0000    0    12.011          5.681794213433814         -3.289191168288643          8.148145710681394
  28 H     1.0000    0     1.008          5.098524573020617         -5.965213449273189          5.235030830030552
  29 H     1.0000    0     1.008          2.628076149514695         -4.088233518125236          5.755440620324992
  30 H     1.0000    0     1.008          7.180793013000971         -4.383420078600539          9.058086638687154
  31 H     1.0000    0     1.008          4.506089760857903         -2.354778286848602          9.563337045935278
  32 H     1.0000    0     1.008          6.476851130853966         -1.874039517283571          6.875982077325607
  33 H     1.0000    0     1.008          3.272444415289833         -6.477176163749000          7.738848037609255
  34 Cl   17.0000    0    35.453          0.618114300596570        -10.262414773013569         -2.412314778448103
  35 H     1.0000    0     1.008         -4.619282466553652        -16.190334477033822         -4.218123843940313
  36 H     1.0000    0     1.008         -1.130262208233506        -13.840012164409009         -2.202054400157354
  37 H     1.0000    0     1.008         -1.898913982384377        -18.165219229454102         -3.918983976392847
  38 C     6.0000    0    12.011         -3.355734094642413        -17.131206442399606         -2.879194296546955
  39 N     7.0000    0    14.007         -2.168587350325609        -15.223104611552108         -1.231294526257472
  40 Cl   17.0000    0    35.453         -4.795144160028632        -11.263404595877791          2.004889823974681
  41 H     1.0000    0     1.008         -3.481814732571504        -14.132883810370256         -0.178443059373916
  42 H     1.0000    0     1.008         -0.913349993951355        -15.982698928343092          0.106455832028320
  43 H     1.0000    0     1.008         -4.445166880026416        -18.455547304039094         -1.725554286310709
  44 Cl   17.0000    0    35.453          1.728324624823038        -16.232222146518321          3.038073021256384
  45 H     1.0000    0     1.008         -5.708582971108281          2.150226771208430         -7.104287450469170
  46 H     1.0000    0     1.008         -4.618180756217576          1.767757540059572         -2.624430867802361
  47 C     6.0000    0    12.011         -4.575306649691171          3.619282860183606         -6.192564510719120
  48 H     1.0000    0     1.008         -5.806975341723159          5.180340265988738         -5.628233705620083
  49 N     7.0000    0    14.007         -3.326789159449141          2.543423977619559         -3.946802634810302
  50 H     1.0000    0     1.008         -2.136584838247653          1.002892777081080         -4.390481985163002
  51 H     1.0000    0     1.008         -3.149406236436354          4.310525782710661         -7.519741851285623
  52 H     1.0000    0     1.008         -2.203273273513733          3.846414713398003         -2.968933611194607
  53 H     1.0000    0     1.008          6.845918424261054        -16.079587076955367          9.333999882322594
  54 H     1.0000    0     1.008          4.430667011400838        -14.772845234801091          5.551731922540549
  55 C     6.0000    0    12.011          7.619634664450833        -14.723047171719998          7.979893944347715
  56 H     1.0000    0     1.008          8.875153590019043        -15.702654743378901          6.661706031000277
  57 N     7.0000    0    14.007          5.542160459672238        -13.504126572187442          6.579673019526755
  58 H     1.0000    0     1.008          4.303004672697654        -12.458559999550154          7.767430145384815
  59 H     1.0000    0     1.008          8.688014010976820        -13.276289851125092          8.999051594263456
  60 H     1.0000    0     1.008          6.179119109276271        -12.142552436531306          5.268152059979791
* core charge reduced due to ECP

--------------------------------
INTERNAL COORDINATES (ANGSTROEM)
--------------------------------
 C      0   0   0   0.000000     0.000     0.000
 N      1   0   0   1.474351     0.000     0.000
 H      1   2   0   1.094057   109.379     0.000
 H      1   2   3   1.093747   109.392   240.247
 H      1   2   3   1.093743   109.882   120.181
 H      2   1   3   1.059937   113.525    58.337
 H      2   1   3   1.049786   114.205   300.796
 H      2   1   3   1.052480   114.026   179.570
 Pb     6   2   1   3.324314    98.666   182.683
 Cl     7   2   1   2.088378   153.268   159.379
 Cl     8   2   1   2.041294   162.751   184.533
 Cl     6   2   1   2.075603   159.265   195.784
 Cl     9   6   2   3.420549   129.249   242.127
 Cl     9   6   2   3.054822   139.456     2.527
 Cl     9   6   2   2.877892   116.139   140.841
 N     13   9   6   3.124717    74.619   193.979
 C     16  13   9   1.481437   118.562   194.812
 H     16  13   9   1.054191     8.678   147.168
 H     16  13   9   1.045770    96.103   313.767
 H     17  16  13   1.091638   108.854   288.806
 H     17  16  13   1.092106   108.201   169.601
 H     17  16  13   1.093521   108.670    49.493
 H     16  13   9   1.027810   110.223    65.180
 Cl    10   7   2   4.402040   151.560   271.161
 Cl    24  10   7   4.094637    99.675    50.896
 Pb    15   9   6   2.864228   135.735   251.006
 N     24  10   7   3.154214    52.194    35.634
 C     27  24  10   1.480482   124.026   279.742
 H     27  24  10   1.044781    15.609   326.380
 H     27  24  10   1.029741   108.104    53.834
 H     28  27  24   1.093789   108.810   312.119
 H     28  27  24   1.091975   108.924   191.537
 H     28  27  24   1.091334   108.308    72.649
 H     27  24  10   1.054075    89.706   161.936
 Cl    26  15   9   2.770212    97.056   316.624
 H     21  17  16   3.848588   138.761   122.863
 H     35  26  15   2.110099    86.364   224.369
 H     36  21  17   1.785929   125.185   216.379
 C     38  36  21   1.093832    35.291    87.016
 N     37  35  26   1.049512   151.769    20.309
 Cl    23  16  13   2.745410   135.963   117.034
 H     40  37  35   1.061214   102.750    37.223
 H     40  37  35   1.050677   105.403   286.882
 H     39  38  36   1.093699   109.375   119.736
 Cl    43  40  37   2.092432   161.092    51.583
 H     13   9   6   3.996119    97.029   105.015
 H     13   9   6   2.015831    73.302    87.496
 C     46  13   9   1.093962    83.192   309.919
 H     48  46  13   1.093795   109.295   269.288
 N     47  13   9   1.060735   162.243    40.326
 H     50  47  13   1.056590   103.419    16.108
 H     48  46  13   1.093799   109.429   149.386
 H     50  47  13   1.047223   107.131   264.139
 H     25  24  10   4.191088    74.911   202.103
 H     45  43  40   2.100168   154.326   345.814
 C     54  25  24   1.093803    73.467    15.654
 H     56  54  25   1.093949   109.516   202.499
 N     55  45  43   1.045273   161.611    11.298
 H     58  55  45   1.063565   107.143    63.626
 H     56  54  25   1.093903   109.256    82.693
 H     58  55  45   1.055664   106.017   313.792

---------------------------
INTERNAL COORDINATES (A.U.)
---------------------------
 C      0   0   0   0.000000     0.000     0.000
 N      1   0   0   2.786120     0.000     0.000
 H      1   2   0   2.067468   109.379     0.000
 H      1   2   3   2.066883   109.392   240.247
 H      1   2   3   2.066875   109.882   120.181
 H      2   1   3   2.002991   113.525    58.337
 H      2   1   3   1.983809   114.205   300.796
 H      2   1   3   1.988899   114.026   179.570
 Pb     6   2   1   6.282044    98.666   182.683
 Cl     7   2   1   3.946462   153.268   159.379
 Cl     8   2   1   3.857487   162.751   184.533
 Cl     6   2   1   3.922321   159.265   195.784
 Cl     9   6   2   6.463902   129.249   242.127
 Cl     9   6   2   5.772777   139.456     2.527
 Cl     9   6   2   5.438427   116.139   140.841
 N     13   9   6   5.904859    74.619   193.979
 C     16  13   9   2.799511   118.562   194.812
 H     16  13   9   1.992133     8.678   147.168
 H     16  13   9   1.976218    96.103   313.767
 H     17  16  13   2.062897   108.854   288.806
 H     17  16  13   2.063782   108.201   169.601
 H     17  16  13   2.066456   108.670    49.493
 H     16  13   9   1.942279   110.223    65.180
 Cl    10   7   2   8.318650   151.560   271.161
 Cl    24  10   7   7.737742    99.675    50.896
 Pb    15   9   6   5.412607   135.735   251.006
 N     24  10   7   5.960601    52.194    35.634
 C     27  24  10   2.797706   124.026   279.742
 H     27  24  10   1.974351    15.609   326.380
 H     27  24  10   1.945929   108.104    53.834
 H     28  27  24   2.066961   108.810   312.119
 H     28  27  24   2.063535   108.924   191.537
 H     28  27  24   2.062322   108.308    72.649
 H     27  24  10   1.991912    89.706   161.936
 Cl    26  15   9   5.234941    97.056   316.624
 H     21  17  16   7.272777   138.761   122.863
 H     35  26  15   3.987510    86.364   224.369
 H     36  21  17   3.374916   125.185   216.379
 C     38  36  21   2.067044    35.291    87.016
 N     37  35  26   1.983290   151.769    20.309
 Cl    23  16  13   5.188073   135.963   117.034
 H     40  37  35   2.005404   102.750    37.223
 H     40  37  35   1.985492   105.403   286.882
 H     39  38  36   2.066792   109.375   119.736
 Cl    43  40  37   3.954123   161.092    51.583
 H     13   9   6   7.551570    97.029   105.015
 H     13   9   6   3.809369    73.302    87.496
 C     46  13   9   2.067288    83.192   309.919
 H     48  46  13   2.066973   109.295   269.288
 N     47  13   9   2.004499   162.243    40.326
 H     50  47  13   1.996666   103.419    16.108
 H     48  46  13   2.066981   109.429   149.386
 H     50  47  13   1.978965   107.131   264.139
 H     25  24  10   7.920008    74.911   202.103
 H     45  43  40   3.968742   154.326   345.814
 C     54  25  24   2.066988    73.467    15.654
 H     56  54  25   2.067263   109.516   202.499
 N     55  45  43   1.975279   161.611    11.298
 H     58  55  45   2.009847   107.143    63.626
 H     56  54  25   2.067178   109.256    82.693
 H     58  55  45   1.994915   106.017   313.792

---------------------
BASIS SET INFORMATION
---------------------
There are 5 groups of distinct atoms

 Group   1 Type C   : 11s6p2d1f contracted to 5s3p2d1f pattern {62111/411/11/1}
 Group   2 Type N   : 11s6p2d1f contracted to 5s3p2d1f pattern {62111/411/11/1}
 Group   3 Type H   : 5s1p contracted to 3s1p pattern {311/1}
 Group   4 Type Pb  : 10s9p8d2f contracted to 6s5p3d2f pattern {421111/33111/611/11}
 Group   5 Type Cl  : 14s9p3d1f contracted to 5s5p2d1f pattern {73211/51111/21/1}

Atom   0C    basis set group =>   1
Atom   1N    basis set group =>   2
Atom   2H    basis set group =>   3
Atom   3H    basis set group =>   3
Atom   4H    basis set group =>   3
Atom   5H    basis set group =>   3
Atom   6H    basis set group =>   3
Atom   7H    basis set group =>   3
Atom   8Pb   basis set group =>   4
Atom   9Cl   basis set group =>   5
Atom  10Cl   basis set group =>   5
Atom  11Cl   basis set group =>   5
Atom  12Cl   basis set group =>   5
Atom  13Cl   basis set group =>   5
Atom  14Cl   basis set group =>   5
Atom  15N    basis set group =>   2
Atom  16C    basis set group =>   1
Atom  17H    basis set group =>   3
Atom  18H    basis set group =>   3
Atom  19H    basis set group =>   3
Atom  20H    basis set group =>   3
Atom  21H    basis set group =>   3
Atom  22H    basis set group =>   3
Atom  23Cl   basis set group =>   5
Atom  24Cl   basis set group =>   5
Atom  25Pb   basis set group =>   4
Atom  26N    basis set group =>   2
Atom  27C    basis set group =>   1
Atom  28H    basis set group =>   3
Atom  29H    basis set group =>   3
Atom  30H    basis set group =>   3
Atom  31H    basis set group =>   3
Atom  32H    basis set group =>   3
Atom  33H    basis set group =>   3
Atom  34Cl   basis set group =>   5
Atom  35H    basis set group =>   3
Atom  36H    basis set group =>   3
Atom  37H    basis set group =>   3
Atom  38C    basis set group =>   1
Atom  39N    basis set group =>   2
Atom  40Cl   basis set group =>   5
Atom  41H    basis set group =>   3
Atom  42H    basis set group =>   3
Atom  43H    basis set group =>   3
Atom  44Cl   basis set group =>   5
Atom  45H    basis set group =>   3
Atom  46H    basis set group =>   3
Atom  47C    basis set group =>   1
Atom  48H    basis set group =>   3
Atom  49N    basis set group =>   2
Atom  50H    basis set group =>   3
Atom  51H    basis set group =>   3
Atom  52H    basis set group =>   3
Atom  53H    basis set group =>   3
Atom  54H    basis set group =>   3
Atom  55C    basis set group =>   1
Atom  56H    basis set group =>   3
Atom  57N    basis set group =>   2
Atom  58H    basis set group =>   3
Atom  59H    basis set group =>   3
Atom  60H    basis set group =>   3
-------------------------------
AUXILIARY BASIS SET INFORMATION
-------------------------------
There are 5 groups of distinct atoms

 Group   1 Type C   : 12s5p4d2f1g contracted to 6s4p3d1f1g pattern {711111/2111/211/2/1}
 Group   2 Type N   : 12s5p4d2f1g contracted to 6s4p3d1f1g pattern {711111/2111/211/2/1}
 Group   3 Type H   : 5s2p1d contracted to 3s1p1d pattern {311/2/1}
 Group   4 Type Pb  : 31s12p8d6f3g contracted to 31s12p8d6f3g pattern {1111111111111111111111111111111/111111111111/11111111/111111/111}
 Group   5 Type Cl  : 14s5p5d2f1g contracted to 8s4p3d1f1g pattern {71111111/2111/311/2/1}

Atom   0C    basis set group =>   1
Atom   1N    basis set group =>   2
Atom   2H    basis set group =>   3
Atom   3H    basis set group =>   3
Atom   4H    basis set group =>   3
Atom   5H    basis set group =>   3
Atom   6H    basis set group =>   3
Atom   7H    basis set group =>   3
Atom   8Pb   basis set group =>   4
Atom   9Cl   basis set group =>   5
Atom  10Cl   basis set group =>   5
Atom  11Cl   basis set group =>   5
Atom  12Cl   basis set group =>   5
Atom  13Cl   basis set group =>   5
Atom  14Cl   basis set group =>   5
Atom  15N    basis set group =>   2
Atom  16C    basis set group =>   1
Atom  17H    basis set group =>   3
Atom  18H    basis set group =>   3
Atom  19H    basis set group =>   3
Atom  20H    basis set group =>   3
Atom  21H    basis set group =>   3
Atom  22H    basis set group =>   3
Atom  23Cl   basis set group =>   5
Atom  24Cl   basis set group =>   5
Atom  25Pb   basis set group =>   4
Atom  26N    basis set group =>   2
Atom  27C    basis set group =>   1
Atom  28H    basis set group =>   3
Atom  29H    basis set group =>   3
Atom  30H    basis set group =>   3
Atom  31H    basis set group =>   3
Atom  32H    basis set group =>   3
Atom  33H    basis set group =>   3
Atom  34Cl   basis set group =>   5
Atom  35H    basis set group =>   3
Atom  36H    basis set group =>   3
Atom  37H    basis set group =>   3
Atom  38C    basis set group =>   1
Atom  39N    basis set group =>   2
Atom  40Cl   basis set group =>   5
Atom  41H    basis set group =>   3
Atom  42H    basis set group =>   3
Atom  43H    basis set group =>   3
Atom  44Cl   basis set group =>   5
Atom  45H    basis set group =>   3
Atom  46H    basis set group =>   3
Atom  47C    basis set group =>   1
Atom  48H    basis set group =>   3
Atom  49N    basis set group =>   2
Atom  50H    basis set group =>   3
Atom  51H    basis set group =>   3
Atom  52H    basis set group =>   3
Atom  53H    basis set group =>   3
Atom  54H    basis set group =>   3
Atom  55C    basis set group =>   1
Atom  56H    basis set group =>   3
Atom  57N    basis set group =>   2
Atom  58H    basis set group =>   3
Atom  59H    basis set group =>   3
Atom  60H    basis set group =>   3

-------------------------
ECP PARAMETER INFORMATION
-------------------------

 Group 1, Type Pb ECP SD(60,MDF) (replacing 60 core electrons, lmax=5)

Atom   8Pb   ECP group =>   1
Atom  25Pb   ECP group =>   1


------------------------------------------------------------------------------
                           ORCA GTO INTEGRAL CALCULATION
                           -- RI-GTO INTEGRALS CHOSEN --
------------------------------------------------------------------------------

                         BASIS SET STATISTICS AND STARTUP INFO

Gaussian basis set:
 # of primitive gaussian shells          ...  811
 # of primitive gaussian functions       ... 1715
 # of contracted shells                  ...  451
 # of contracted basis functions         ... 1095
 Highest angular momentum                ...    3
 Maximum contraction depth               ...    7
Auxiliary gaussian basis set:
 # of primitive gaussian shells          ...  993
 # of primitive gaussian functions       ... 2615
 # of contracted shells                  ...  667
 # of contracted aux-basis functions     ... 1897
 Highest angular momentum                ...    4
 Maximum contraction depth               ...    7
Ratio of auxiliary to basis functions    ...  1.73
Integral package used                  ... LIBINT
 One Electron integrals                  
   ECP integrals                         ... done
 Ordering auxiliary basis shells         ... done
 Integral threshhold             Thresh  ...  2.500e-11
 Primitive cut-off               TCut    ...  2.500e-12
 Pre-screening matrix                    ... done
 Shell pair data                         ... 
 Ordering of the shell pairs             ... done (   0.010 sec) 48335 of 101926 pairs
 Determination of significant pairs      ... done (   0.000 sec)
 Creation of shell pair data             ... done (   0.015 sec)
 Storage of shell pair data              ... done (   0.009 sec)
 Shell pair data done in (   0.035 sec)
 Computing two index integrals           ... done
 Cholesky decomposition of the V-matrix  ... done


Timings:
 Total evaluation time                   ...   6.514 sec (  0.109 min)
 One electron matrix time                ...   4.241 sec (  0.071 min) = 65.1%
 Schwartz matrix evaluation time         ...   1.863 sec (  0.031 min) = 28.6%
 Two index repulsion integral time       ...   0.134 sec (  0.002 min) =  2.1%
 Cholesky decomposition of V             ...   0.214 sec (  0.004 min) =  3.3%
 Three index repulsion integral time     ...   0.000 sec (  0.000 min) =  0.0%

-------------------------------------------------------------------------------
                                 ORCA SCF
-------------------------------------------------------------------------------

------------
SCF SETTINGS
------------
Hamiltonian:
 Density Functional     Method          .... DFT(GTOs)
 Exchange Functional    Exchange        .... B88
   X-Alpha parameter    XAlpha          ....  0.666667
   Becke's b parameter  XBeta           ....  0.004200
 Correlation Functional Correlation     .... LYP
 LDA part of GGA corr.  LDAOpt          .... VWN-3
 Gradients option       PostSCFGGA      .... off
 Hybrid DFT is turned on
   Fraction HF Exchange ScalHFX         ....  0.530000
   Scaling of DF-GGA-X  ScalDFX         ....  0.470000
   Scaling of DF-GGA-C  ScalDFC         ....  0.730000
   Scaling of DF-LDA-C  ScalLDAC        ....  0.730000
   Perturbative correction              ....  0.270000
 RI-approximation to the Coulomb term is turned on
   Number of auxiliary basis functions  .... 1897
   RIJ-COSX (HFX calculated with COS-X)).... on


General Settings:
 Integral files         IntName         .... Pb2Cl11_6NH3CH3_-1_mp2_sp2_2.orca
 Hartree-Fock type      HFTyp           .... RHF
 Total Charge           Charge          ....   -1
 Multiplicity           Mult            ....    1
 Number of Electrons    NEL             ....  346
 Basis Dimension        Dim             .... 1095
 Nuclear Repulsion      ENuc            ....   5904.2014986632 Eh

Convergence Acceleration:
 DIIS                   CNVDIIS         .... on
   Start iteration      DIISMaxIt       ....    12
   Startup error        DIISStart       ....  0.200000
   # of expansion vecs  DIISMaxEq       ....     5
   Bias factor          DIISBfac        ....   1.050
   Max. coefficient     DIISMaxC        ....  10.000
 Newton-Raphson         CNVNR           .... off
 SOSCF                  CNVSOSCF        .... on
   Start iteration      SOSCFMaxIt      ....   150
   Startup grad/error   SOSCFStart      ....  0.003300
 Level Shifting         CNVShift        .... on
   Level shift para.    LevelShift      ....    0.2500
   Turn off err/grad.   ShiftErr        ....    0.0010
 Zerner damping         CNVZerner       .... off
 Static damping         CNVDamp         .... on
   Fraction old density DampFac         ....    0.7000
   Max. Damping (<1)    DampMax         ....    0.9800
   Min. Damping (>=0)   DampMin         ....    0.0000
   Turn off err/grad.   DampErr         ....    0.1000
 Fernandez-Rico         CNVRico         .... off

SCF Procedure:
 Maximum # iterations   MaxIter         ....   125
 SCF integral mode      SCFMode         .... Direct
   Integral package                     .... LIBINT
 Reset frequeny         DirectResetFreq ....    20
 Integral Threshold     Thresh          ....  2.500e-11 Eh
 Primitive CutOff       TCut            ....  2.500e-12 Eh

Convergence Tolerance:
 Convergence Check Mode ConvCheckMode   .... Total+1el-Energy
 Energy Change          TolE            ....  1.000e-08 Eh
 1-El. energy change                    ....  1.000e-05 Eh
 Orbital Gradient       TolG            ....  1.000e-05
 Orbital Rotation angle TolX            ....  1.000e-05
 DIIS Error             TolErr          ....  5.000e-07


Diagonalization of the overlap matrix:
Smallest eigenvalue                        ... 8.189e-04
Time for diagonalization                   ...    0.557 sec
Threshold for overlap eigenvalues          ... 1.000e-08
Number of eigenvalues below threshold      ... 0
Time for construction of square roots      ...    0.314 sec
Total time needed                          ...    0.874 sec

---------------------
INITIAL GUESS: MOREAD
---------------------
Guess MOs are being read from file: previous.gbw
Input Geometry matches current geometry (good)
Input basis set matches current basis set (good)
MOs were renormalized
MOs were reorthogonalized (Cholesky)
                      ------------------
                      INITIAL GUESS DONE (   1.0 sec)
                      ------------------
-------------------
DFT GRID GENERATION
-------------------

General Integration Accuracy     IntAcc      ...  5.010
Radial Grid Type                 RadialGrid  ... Gauss-Chebyshev
Angular Grid (max. acc.)         AngularGrid ... Lebedev-434
Angular grid pruning method      GridPruning ... 3 (G Style)
Weight generation scheme         WeightScheme... Becke
Basis function cutoff            BFCut       ...    1.0000e-11
Integration weight cutoff        WCut        ...    1.0000e-14
Grids for H and He will be reduced by one unit

# of grid points (after initial pruning)     ... 536944 (   0.4 sec)
# of grid points (after weights+screening)   ... 471487 (  13.0 sec)
nearest neighbour list constructed           ...    0.0 sec
Grid point re-assignment to atoms done       ...    0.1 sec
Grid point division into batches done        ...    3.3 sec
Reduced shell lists constructed in   29.1 sec

Total number of grid points                  ...   471487
Total number of batches                      ...     7394
Average number of points per batch           ...       63
Average number of grid points per atom       ...     7729
Average number of shells per batch           ...   108.21 (23.99%)
Average number of basis functions per batch  ...   251.04 (22.93%)
Average number of large shells per batch     ...    63.68 (58.85%)
Average number of large basis fcns per batch ...   150.50 (59.95%)
Maximum spatial batch extension              ...  31.40, 29.28, 28.31 au
Average spatial batch extension              ...   1.80,  1.77,  1.80 au

Time for grid setup =   42.577 sec

--------------------
COSX GRID GENERATION
--------------------

General Integration Accuracy     IntAcc      ...  3.340
Radial Grid Type                 RadialGrid  ... Gauss-Chebyshev
Angular Grid (max. acc.)         AngularGrid ... Lebedev-50
Angular grid pruning method      GridPruning ... 3 (G Style)
Weight generation scheme         WeightScheme... Becke
Basis function cutoff            BFCut       ...    1.0000e-11
Integration weight cutoff        WCut        ...    1.0000e-14
Grids for H and He will be reduced by one unit

# of grid points (after initial pruning)     ...  28950 (   0.0 sec)
# of grid points (after weights+screening)   ...  26066 (   0.7 sec)
nearest neighbour list constructed           ...    0.0 sec
Grid point re-assignment to atoms done       ...    0.0 sec
Grid point division into batches done        ...    0.0 sec
Reduced shell lists constructed in    2.0 sec

Total number of grid points                  ...    26066
Total number of batches                      ...      440
Average number of points per batch           ...       59
Average number of grid points per atom       ...      427
Average number of shells per batch           ...   138.89 (30.80%)
Average number of basis functions per batch  ...   329.68 (30.11%)
Average number of large shells per batch     ...    81.99 (59.03%)
Average number of large basis fcns per batch ...   196.39 (59.57%)
Maximum spatial batch extension              ...  23.80, 21.28, 22.08 au
Average spatial batch extension              ...   4.51,  4.30,  4.59 au

Overlap Fitting                  UseSFitting ... on
Constructing numerical overlap ... done (      1.2 sec)
Inverting numerical overlap    ... done (      0.1 sec)
Obtaining analytic overlap     ... done (      0.0 sec)
Final contraction and storage  ... done (      0.2 sec)


General Integration Accuracy     IntAcc      ...  3.670
Radial Grid Type                 RadialGrid  ... Gauss-Chebyshev
Angular Grid (max. acc.)         AngularGrid ... Lebedev-50
Angular grid pruning method      GridPruning ... 3 (G Style)
Weight generation scheme         WeightScheme... Becke
Basis function cutoff            BFCut       ...    1.0000e-11
Integration weight cutoff        WCut        ...    1.0000e-14
Grids for H and He will be reduced by one unit

# of grid points (after initial pruning)     ...  36590 (   0.0 sec)
# of grid points (after weights+screening)   ...  32858 (   0.9 sec)
nearest neighbour list constructed           ...    0.0 sec
Grid point re-assignment to atoms done       ...    0.0 sec
Grid point division into batches done        ...    0.0 sec
Reduced shell lists constructed in    2.5 sec

Total number of grid points                  ...    32858
Total number of batches                      ...      539
Average number of points per batch           ...       60
Average number of grid points per atom       ...      539
Average number of shells per batch           ...   134.70 (29.87%)
Average number of basis functions per batch  ...   318.57 (29.09%)
Average number of large shells per batch     ...    79.55 (59.06%)
Average number of large basis fcns per batch ...   190.14 (59.68%)
Maximum spatial batch extension              ...  23.84, 22.71, 22.35 au
Average spatial batch extension              ...   4.30,  4.00,  4.29 au

Overlap Fitting                  UseSFitting ... on
Constructing numerical overlap ... done (      1.4 sec)
Inverting numerical overlap    ... done (      0.1 sec)
Obtaining analytic overlap     ... done (      0.0 sec)
Final contraction and storage  ... done (      0.2 sec)


General Integration Accuracy     IntAcc      ...  4.010
Radial Grid Type                 RadialGrid  ... Gauss-Chebyshev
Angular Grid (max. acc.)         AngularGrid ... Lebedev-110
Angular grid pruning method      GridPruning ... 3 (G Style)
Weight generation scheme         WeightScheme... Becke
Basis function cutoff            BFCut       ...    1.0000e-11
Integration weight cutoff        WCut        ...    1.0000e-14
Grids for H and He will be reduced by one unit

# of grid points (after initial pruning)     ...  66396 (   0.0 sec)
# of grid points (after weights+screening)   ...  59861 (   1.6 sec)
nearest neighbour list constructed           ...    0.0 sec
Grid point re-assignment to atoms done       ...    0.0 sec
Grid point division into batches done        ...    0.0 sec
Reduced shell lists constructed in    4.2 sec

Total number of grid points                  ...    59861
Total number of batches                      ...      968
Average number of points per batch           ...       61
Average number of grid points per atom       ...      981
Average number of shells per batch           ...   128.40 (28.47%)
Average number of basis functions per batch  ...   302.73 (27.65%)
Average number of large shells per batch     ...    76.13 (59.29%)
Average number of large basis fcns per batch ...   181.80 (60.05%)
Maximum spatial batch extension              ...  27.71, 23.05, 25.44 au
Average spatial batch extension              ...   3.71,  3.47,  3.72 au

Overlap Fitting                  UseSFitting ... on
Constructing numerical overlap ... done (      2.3 sec)
Inverting numerical overlap    ... done (      0.1 sec)
Obtaining analytic overlap     ... done (      0.0 sec)
Final contraction and storage  ... done (      0.2 sec)

Time for X-Grid setup             =   17.791 sec
--------------
SCF ITERATIONS
--------------
ITER       Energy         Delta-E        Max-DP      RMS-DP      [F,P]     Damp
               ***  Starting incremental Fock matrix formation  ***
                      *** Initiating the SOSCF procedure ***
                      *** Re-Reading the Fockian *** 
                      *** Removing any level shift *** 
ITER      Energy       Delta-E        Grad      Rot      Max-DP    RMS-DP
  0  -6023.63790074 -6023.6379007443  0.000001  0.000001  0.000009  0.000000
               *** Restarting incremental Fock matrix formation ***
                  ***Gradient check signals convergence***
              ***Rediagonalizing the Fockian in SOSCF/NRSCF***

               *****************************************************
               *                     SUCCESS                       *
               *           SCF CONVERGED AFTER   1 CYCLES          *
               *****************************************************

Old exchange energy                            =   -221.023018243 Eh
New exchange energy                            =   -221.035232670 Eh
Exchange energy change after final integration =     -0.012214427 Eh
Total energy after final integration           =  -6023.650115172 Eh
Final COS-X integration done in                =   419.106 sec

----------------
TOTAL SCF ENERGY
----------------

Total Energy       :        -6023.65011517 Eh         -163911.85275 eV

Components:
Nuclear Repulsion  :         5904.20149866 Eh          160661.49065 eV
Electronic Energy  :       -11927.85161384 Eh         -324573.34340 eV

One Electron Energy:       -20277.05051871 Eh         -551766.59589 eV
Two Electron Energy:         8349.19890488 Eh          227193.25248 eV

Virial components:
Potential Energy   :       -11780.47933891 Eh         -320563.13993 eV
Kinetic Energy     :         5756.82922374 Eh          156651.28718 eV
Virial Ratio       :            2.04634859


DFT components:
N(Alpha)           :      173.000043302214 electrons
N(Beta)            :      173.000043302214 electrons
N(Total)           :      346.000086604429 electrons
E(X)               :     -196.143215246565 Eh       
E(C)               :       -9.610963413482 Eh       
E(XC)              :     -205.754178660047 Eh       

---------------
SCF CONVERGENCE
---------------

  Last Energy change         ...   -2.9468e-10  Tolerance :   1.0000e-08
  Last MAX-Density change    ...    7.4156e-14  Tolerance :   1.0000e-07
  Last RMS-Density change    ...    3.1338e-16  Tolerance :   5.0000e-09
  Last Orbital Gradient      ...    5.7252e-07  Tolerance :   1.0000e-05
  Last Orbital Rotation      ...    1.4328e-06  Tolerance :   1.0000e-05

             **** THE GBW FILE WAS UPDATED (Pb2Cl11_6NH3CH3_-1_mp2_sp2_2.orca.gbw) ****
             **** DENSITY FILE WAS UPDATED (Pb2Cl11_6NH3CH3_-1_mp2_sp2_2.orca.scfp.tmp) ****
             **** ENERGY FILE WAS UPDATED (Pb2Cl11_6NH3CH3_-1_mp2_sp2_2.orca.en.tmp) ****
----------------
ORBITAL ENERGIES
----------------

  NO   OCC          E(Eh)            E(eV) 
   0   2.0000    -102.757439     -2796.1721 
   1   2.0000    -102.742262     -2795.7591 
   2   2.0000    -102.740195     -2795.7028 
   3   2.0000    -102.732912     -2795.5046 
   4   2.0000    -102.731234     -2795.4590 
   5   2.0000    -102.731023     -2795.4533 
   6   2.0000    -102.728375     -2795.3812 
   7   2.0000    -102.727486     -2795.3570 
   8   2.0000    -102.725797     -2795.3110 
   9   2.0000    -102.717505     -2795.0854 
  10   2.0000    -102.716644     -2795.0620 
  11   2.0000     -14.843355      -403.9082 
  12   2.0000     -14.839818      -403.8120 
  13   2.0000     -14.831813      -403.5941 
  14   2.0000     -14.831649      -403.5897 
  15   2.0000     -14.829932      -403.5430 
  16   2.0000     -14.829541      -403.5323 
  17   2.0000     -10.614648      -288.8393 
  18   2.0000     -10.611996      -288.7671 
  19   2.0000     -10.604189      -288.5547 
  20   2.0000     -10.603662      -288.5403 
  21   2.0000     -10.581960      -287.9498 
  22   2.0000     -10.581470      -287.9364 
  23   2.0000      -9.764970      -265.7184 
  24   2.0000      -9.749319      -265.2925 
  25   2.0000      -9.747158      -265.2337 
  26   2.0000      -9.740143      -265.0428 
  27   2.0000      -9.738444      -264.9965 
  28   2.0000      -9.738027      -264.9852 
  29   2.0000      -9.735604      -264.9193 
  30   2.0000      -9.734678      -264.8941 
  31   2.0000      -9.732444      -264.8333 
  32   2.0000      -9.724640      -264.6209 
  33   2.0000      -9.723665      -264.5944 
  34   2.0000      -7.401704      -201.4106 
  35   2.0000      -7.400462      -201.3768 
  36   2.0000      -7.400424      -201.3758 
  37   2.0000      -7.386131      -200.9868 
  38   2.0000      -7.385062      -200.9578 
  39   2.0000      -7.384583      -200.9447 
  40   2.0000      -7.383970      -200.9280 
  41   2.0000      -7.382912      -200.8992 
  42   2.0000      -7.382441      -200.8864 
  43   2.0000      -7.376495      -200.7246 
  44   2.0000      -7.376333      -200.7202 
  45   2.0000      -7.375652      -200.7017 
  46   2.0000      -7.374843      -200.6797 
  47   2.0000      -7.374591      -200.6728 
  48   2.0000      -7.374491      -200.6701 
  49   2.0000      -7.374035      -200.6577 
  50   2.0000      -7.373962      -200.6557 
  51   2.0000      -7.373502      -200.6432 
  52   2.0000      -7.371821      -200.5975 
  53   2.0000      -7.371696      -200.5940 
  54   2.0000      -7.371225      -200.5812 
  55   2.0000      -7.370914      -200.5728 
  56   2.0000      -7.370735      -200.5679 
  57   2.0000      -7.370316      -200.5565 
  58   2.0000      -7.368961      -200.5196 
  59   2.0000      -7.368449      -200.5057 
  60   2.0000      -7.367938      -200.4918 
  61   2.0000      -7.360934      -200.3012 
  62   2.0000      -7.360564      -200.2911 
  63   2.0000      -7.360457      -200.2882 
  64   2.0000      -7.359947      -200.2743 
  65   2.0000      -7.359591      -200.2647 
  66   2.0000      -7.359514      -200.2626 
  67   2.0000      -5.706272      -155.2756 
  68   2.0000      -5.703929      -155.2118 
  69   2.0000      -3.477477       -94.6270 
  70   2.0000      -3.476081       -94.5890 
  71   2.0000      -3.475835       -94.5823 
  72   2.0000      -3.475017       -94.5600 
  73   2.0000      -3.473842       -94.5280 
  74   2.0000      -3.473559       -94.5204 
  75   2.0000      -1.025696       -27.9106 
  76   2.0000      -1.022812       -27.8321 
  77   2.0000      -1.014905       -27.6170 
  78   2.0000      -1.013568       -27.5806 
  79   2.0000      -1.009938       -27.4818 
  80   2.0000      -1.008214       -27.4349 
  81   2.0000      -0.868975       -23.6460 
  82   2.0000      -0.866727       -23.5848 
  83   2.0000      -0.865949       -23.5637 
  84   2.0000      -0.865102       -23.5406 
  85   2.0000      -0.864515       -23.5246 
  86   2.0000      -0.864376       -23.5209 
  87   2.0000      -0.863002       -23.4835 
  88   2.0000      -0.862637       -23.4735 
  89   2.0000      -0.862078       -23.4583 
  90   2.0000      -0.860888       -23.4260 
  91   2.0000      -0.779870       -21.2213 
  92   2.0000      -0.770827       -20.9753 
  93   2.0000      -0.769063       -20.9273 
  94   2.0000      -0.759518       -20.6675 
  95   2.0000      -0.759347       -20.6629 
  96   2.0000      -0.756285       -20.5796 
  97   2.0000      -0.755349       -20.5541 
  98   2.0000      -0.750232       -20.4148 
  99   2.0000      -0.748183       -20.3591 
 100   2.0000      -0.746401       -20.3106 
 101   2.0000      -0.744935       -20.2707 
 102   2.0000      -0.743120       -20.2213 
 103   2.0000      -0.740469       -20.1492 
 104   2.0000      -0.737239       -20.0613 
 105   2.0000      -0.736233       -20.0339 
 106   2.0000      -0.726215       -19.7613 
 107   2.0000      -0.725492       -19.7416 
 108   2.0000      -0.558704       -15.2031 
 109   2.0000      -0.556383       -15.1400 
 110   2.0000      -0.551553       -15.0085 
 111   2.0000      -0.549221       -14.9451 
 112   2.0000      -0.548297       -14.9199 
 113   2.0000      -0.547701       -14.9037 
 114   2.0000      -0.546404       -14.8684 
 115   2.0000      -0.544868       -14.8266 
 116   2.0000      -0.542780       -14.7698 
 117   2.0000      -0.541578       -14.7371 
 118   2.0000      -0.533579       -14.5194 
 119   2.0000      -0.532452       -14.4888 
 120   2.0000      -0.497118       -13.5273 
 121   2.0000      -0.494391       -13.4531 
 122   2.0000      -0.485037       -13.1985 
 123   2.0000      -0.484044       -13.1715 
 124   2.0000      -0.468117       -12.7381 
 125   2.0000      -0.464708       -12.6453 
 126   2.0000      -0.452037       -12.3006 
 127   2.0000      -0.437066       -11.8932 
 128   2.0000      -0.422751       -11.5036 
 129   2.0000      -0.420450       -11.4410 
 130   2.0000      -0.420410       -11.4399 
 131   2.0000      -0.417744       -11.3674 
 132   2.0000      -0.411860       -11.2073 
 133   2.0000      -0.411574       -11.1995 
 134   2.0000      -0.410284       -11.1644 
 135   2.0000      -0.409494       -11.1429 
 136   2.0000      -0.397847       -10.8260 
 137   2.0000      -0.396959       -10.8018 
 138   2.0000      -0.391352       -10.6492 
 139   2.0000      -0.390743       -10.6326 
 140   2.0000      -0.287390        -7.8203 
 141   2.0000      -0.274619        -7.4728 
 142   2.0000      -0.268856        -7.3160 
 143   2.0000      -0.264652        -7.2015 
 144   2.0000      -0.258181        -7.0255 
 145   2.0000      -0.255776        -6.9600 
 146   2.0000      -0.255447        -6.9511 
 147   2.0000      -0.248296        -6.7565 
 148   2.0000      -0.246059        -6.6956 
 149   2.0000      -0.243652        -6.6301 
 150   2.0000      -0.241446        -6.5701 
 151   2.0000      -0.240640        -6.5481 
 152   2.0000      -0.239109        -6.5065 
 153   2.0000      -0.236968        -6.4482 
 154   2.0000      -0.234860        -6.3909 
 155   2.0000      -0.232082        -6.3153 
 156   2.0000      -0.231350        -6.2954 
 157   2.0000      -0.230878        -6.2825 
 158   2.0000      -0.229717        -6.2509 
 159   2.0000      -0.229231        -6.2377 
 160   2.0000      -0.228804        -6.2261 
 161   2.0000      -0.228074        -6.2062 
 162   2.0000      -0.225263        -6.1297 
 163   2.0000      -0.223711        -6.0875 
 164   2.0000      -0.222567        -6.0564 
 165   2.0000      -0.222165        -6.0454 
 166   2.0000      -0.221638        -6.0311 
 167   2.0000      -0.220389        -5.9971 
 168   2.0000      -0.219170        -5.9639 
 169   2.0000      -0.216637        -5.8950 
 170   2.0000      -0.216509        -5.8915 
 171   2.0000      -0.193153        -5.2560 
 172   2.0000      -0.184864        -5.0304 
 173   0.0000       0.097687         2.6582 
 174   0.0000       0.111301         3.0287 
 175   0.0000       0.117869         3.2074 
 176   0.0000       0.123162         3.3514 
 177   0.0000       0.125984         3.4282 
 178   0.0000       0.128097         3.4857 
 179   0.0000       0.129122         3.5136 
 180   0.0000       0.137239         3.7345 
 181   0.0000       0.137956         3.7540 
 182   0.0000       0.143127         3.8947 
 183   0.0000       0.166340         4.5263 
 184   0.0000       0.167869         4.5679 
 185   0.0000       0.180534         4.9126 
 186   0.0000       0.184091         5.0094 
 187   0.0000       0.186304         5.0696 
 188   0.0000       0.187291         5.0965 
 189   0.0000       0.197067         5.3625 
 190   0.0000       0.197836         5.3834 
 191   0.0000       0.199115         5.4182 
 192   0.0000       0.199903         5.4396 
 193   0.0000       0.205140         5.5821 
 194   0.0000       0.205484         5.5915 
 195   0.0000       0.208137         5.6637 
 196   0.0000       0.209707         5.7064 
 197   0.0000       0.213176         5.8008 
 198   0.0000       0.220866         6.0101 
 199   0.0000       0.231921         6.3109 
 200   0.0000       0.232387         6.3236 
 201   0.0000       0.238476         6.4893 
 202   0.0000       0.240046         6.5320 
 203   0.0000       0.247594         6.7374 
 204   0.0000       0.249207         6.7813 
 205   0.0000       0.252353         6.8669 
 206   0.0000       0.254450         6.9239 
 207   0.0000       0.257579         7.0091 
 208   0.0000       0.258635         7.0378 
 209   0.0000       0.267339         7.2747 
 210   0.0000       0.269439         7.3318 
 211   0.0000       0.271042         7.3754 
 212   0.0000       0.272252         7.4084 
 213   0.0000       0.273559         7.4439 
 214   0.0000       0.281439         7.6583 
 215   0.0000       0.283531         7.7153 
 216   0.0000       0.285842         7.7782 
 217   0.0000       0.288279         7.8445 
 218   0.0000       0.290559         7.9065 
 219   0.0000       0.295798         8.0491 
 220   0.0000       0.298552         8.1240 
 221   0.0000       0.300680         8.1819 
 222   0.0000       0.307987         8.3807 
 223   0.0000       0.312690         8.5087 
 224   0.0000       0.314819         8.5667 
 225   0.0000       0.324635         8.8338 
 226   0.0000       0.326591         8.8870 
 227   0.0000       0.339523         9.2389 
 228   0.0000       0.343511         9.3474 
 229   0.0000       0.347936         9.4678 
 230   0.0000       0.349090         9.4992 
 231   0.0000       0.349110         9.4998 
 232   0.0000       0.351900         9.5757 
 233   0.0000       0.359183         9.7739 
 234   0.0000       0.361601         9.8397 
 235   0.0000       0.364675         9.9233 
 236   0.0000       0.366784         9.9807 
 237   0.0000       0.367217         9.9925 
 238   0.0000       0.370162        10.0726 
 239   0.0000       0.370582        10.0840 
 240   0.0000       0.371854        10.1187 
 241   0.0000       0.374399        10.1879 
 242   0.0000       0.376131        10.2350 
 243   0.0000       0.382371        10.4048 
 244   0.0000       0.386486        10.5168 
 245   0.0000       0.388663        10.5761 
 246   0.0000       0.391966        10.6659 
 247   0.0000       0.396741        10.7959 
 248   0.0000       0.403111        10.9692 
 249   0.0000       0.403856        10.9895 
 250   0.0000       0.405688        11.0393 
 251   0.0000       0.409175        11.1342 
 252   0.0000       0.416663        11.3380 
 253   0.0000       0.423446        11.5225 
 254   0.0000       0.427507        11.6330 
 255   0.0000       0.428224        11.6526 
 256   0.0000       0.434532        11.8242 
 257   0.0000       0.437549        11.9063 
 258   0.0000       0.438809        11.9406 
 259   0.0000       0.452969        12.3259 
 260   0.0000       0.462003        12.5717 
 261   0.0000       0.463813        12.6210 
 262   0.0000       0.468326        12.7438 
 263   0.0000       0.471563        12.8319 
 264   0.0000       0.473072        12.8729 
 265   0.0000       0.477525        12.9941 
 266   0.0000       0.483185        13.1481 
 267   0.0000       0.486608        13.2413 
 268   0.0000       0.493459        13.4277 
 269   0.0000       0.494251        13.4493 
 270   0.0000       0.497224        13.5302 
 271   0.0000       0.499718        13.5980 
 272   0.0000       0.505116        13.7449 
 273   0.0000       0.507361        13.8060 
 274   0.0000       0.511836        13.9278 
 275   0.0000       0.516573        14.0567 
 276   0.0000       0.519344        14.1321 
 277   0.0000       0.525864        14.3095 
 278   0.0000       0.529833        14.4175 
 279   0.0000       0.532485        14.4896 
 280   0.0000       0.535402        14.5690 
 281   0.0000       0.537720        14.6321 
 282   0.0000       0.539946        14.6927 
 283   0.0000       0.547842        14.9075 
 284   0.0000       0.552513        15.0347 
 285   0.0000       0.554235        15.0815 
 286   0.0000       0.557607        15.1733 
 287   0.0000       0.558719        15.2035 
 288   0.0000       0.562611        15.3094 
 289   0.0000       0.564478        15.3602 
 290   0.0000       0.565490        15.3878 
 291   0.0000       0.567363        15.4387 
 292   0.0000       0.568651        15.4738 
 293   0.0000       0.572207        15.5705 
 294   0.0000       0.573720        15.6117 
 295   0.0000       0.574953        15.6453 
 296   0.0000       0.576465        15.6864 
 297   0.0000       0.579824        15.7778 
 298   0.0000       0.580252        15.7894 
 299   0.0000       0.583046        15.8655 
 300   0.0000       0.585178        15.9235 
 301   0.0000       0.586076        15.9479 
 302   0.0000       0.588168        16.0049 
 303   0.0000       0.589739        16.0476 
 304   0.0000       0.593873        16.1601 
 305   0.0000       0.594323        16.1724 
 306   0.0000       0.597478        16.2582 
 307   0.0000       0.601023        16.3547 
 308   0.0000       0.603006        16.4086 
 309   0.0000       0.604226        16.4418 
 310   0.0000       0.605867        16.4865 
 311   0.0000       0.607983        16.5441 
 312   0.0000       0.608904        16.5691 
 313   0.0000       0.611207        16.6318 
 314   0.0000       0.614338        16.7170 
 315   0.0000       0.615452        16.7473 
 316   0.0000       0.620928        16.8963 
 317   0.0000       0.623590        16.9687 
 318   0.0000       0.626188        17.0394 
 319   0.0000       0.630964        17.1694 
 320   0.0000       0.631390        17.1810 
 321   0.0000       0.633436        17.2367 
 322   0.0000       0.636446        17.3186 
 323   0.0000       0.638419        17.3723 
 324   0.0000       0.639593        17.4042 
 325   0.0000       0.643627        17.5140 
 326   0.0000       0.645576        17.5670 
 327   0.0000       0.648340        17.6422 
 328   0.0000       0.650165        17.6919 
 329   0.0000       0.652395        17.7526 
 330   0.0000       0.655343        17.8328 
 331   0.0000       0.657267        17.8852 
 332   0.0000       0.659885        17.9564 
 333   0.0000       0.662314        18.0225 
 334   0.0000       0.663775        18.0622 
 335   0.0000       0.664572        18.0839 
 336   0.0000       0.668597        18.1935 
 337   0.0000       0.670385        18.2421 
 338   0.0000       0.672796        18.3077 
 339   0.0000       0.680352        18.5133 
 340   0.0000       0.680969        18.5301 
 341   0.0000       0.684669        18.6308 
 342   0.0000       0.685967        18.6661 
 343   0.0000       0.687084        18.6965 
 344   0.0000       0.688676        18.7398 
 345   0.0000       0.690604        18.7923 
 346   0.0000       0.693480        18.8706 
 347   0.0000       0.696084        18.9414 
 348   0.0000       0.700928        19.0732 
 349   0.0000       0.703166        19.1341 
 350   0.0000       0.705193        19.1893 
 351   0.0000       0.711938        19.3728 
 352   0.0000       0.714669        19.4471 
 353   0.0000       0.716621        19.5002 
 354   0.0000       0.723832        19.6965 
 355   0.0000       0.728482        19.8230 
 356   0.0000       0.731526        19.9058 
 357   0.0000       0.732660        19.9367 
 358   0.0000       0.734051        19.9745 
 359   0.0000       0.735337        20.0096 
 360   0.0000       0.741593        20.1798 
 361   0.0000       0.743380        20.2284 
 362   0.0000       0.751412        20.4470 
 363   0.0000       0.752109        20.4659 
 364   0.0000       0.756550        20.5868 
 365   0.0000       0.761356        20.7175 
 366   0.0000       0.768382        20.9087 
 367   0.0000       0.772276        21.0147 
 368   0.0000       0.775314        21.0974 
 369   0.0000       0.778657        21.1883 
 370   0.0000       0.779195        21.2030 
 371   0.0000       0.787701        21.4344 
 372   0.0000       0.789584        21.4857 
 373   0.0000       0.791751        21.5446 
 374   0.0000       0.798584        21.7306 
 375   0.0000       0.800967        21.7954 
 376   0.0000       0.804061        21.8796 
 377   0.0000       0.806504        21.9461 
 378   0.0000       0.808689        22.0055 
 379   0.0000       0.810664        22.0593 
 380   0.0000       0.811808        22.0904 
 381   0.0000       0.814187        22.1551 
 382   0.0000       0.820185        22.3184 
 383   0.0000       0.821385        22.3510 
 384   0.0000       0.823521        22.4091 
 385   0.0000       0.826518        22.4907 
 386   0.0000       0.830055        22.5870 
 387   0.0000       0.832330        22.6489 
 388   0.0000       0.833694        22.6860 
 389   0.0000       0.836724        22.7684 
 390   0.0000       0.837769        22.7969 
 391   0.0000       0.842489        22.9253 
 392   0.0000       0.843382        22.9496 
 393   0.0000       0.848334        23.0844 
 394   0.0000       0.852650        23.2018 
 395   0.0000       0.855760        23.2864 
 396   0.0000       0.863196        23.4887 
 397   0.0000       0.871593        23.7173 
 398   0.0000       0.872591        23.7444 
 399   0.0000       0.877262        23.8715 
 400   0.0000       0.885408        24.0932 
 401   0.0000       0.888761        24.1844 
 402   0.0000       0.889214        24.1967 
 403   0.0000       0.890531        24.2326 
 404   0.0000       0.899153        24.4672 
 405   0.0000       0.900383        24.5007 
 406   0.0000       0.903921        24.5969 
 407   0.0000       0.906372        24.6636 
 408   0.0000       0.912686        24.8354 
 409   0.0000       0.915220        24.9044 
 410   0.0000       0.921978        25.0883 
 411   0.0000       0.923917        25.1411 
 412   0.0000       0.926229        25.2040 
 413   0.0000       0.936632        25.4870 
 414   0.0000       0.939412        25.5627 
 415   0.0000       0.944633        25.7048 
 416   0.0000       0.949749        25.8440 
 417   0.0000       0.954233        25.9660 
 418   0.0000       0.959845        26.1187 
 419   0.0000       0.962120        26.1806 
 420   0.0000       0.964417        26.2431 
 421   0.0000       0.967727        26.3332 
 422   0.0000       0.974318        26.5125 
 423   0.0000       0.980075        26.6692 
 424   0.0000       0.986617        26.8472 
 425   0.0000       0.987379        26.8679 
 426   0.0000       0.993122        27.0242 
 427   0.0000       0.999110        27.1872 
 428   0.0000       1.001224        27.2447 
 429   0.0000       1.006256        27.3816 
 430   0.0000       1.009359        27.4660 
 431   0.0000       1.010569        27.4990 
 432   0.0000       1.018608        27.7177 
 433   0.0000       1.022053        27.8115 
 434   0.0000       1.022868        27.8337 
 435   0.0000       1.029153        28.0047 
 436   0.0000       1.031989        28.0819 
 437   0.0000       1.034690        28.1553 
 438   0.0000       1.037582        28.2341 
 439   0.0000       1.044891        28.4329 
 440   0.0000       1.049616        28.5615 
 441   0.0000       1.052250        28.6332 
 442   0.0000       1.055272        28.7154 
 443   0.0000       1.061210        28.8770 
 444   0.0000       1.063392        28.9364 
 445   0.0000       1.071019        29.1439 
 446   0.0000       1.076726        29.2992 
 447   0.0000       1.087266        29.5860 
 448   0.0000       1.091384        29.6981 
 449   0.0000       1.094269        29.7766 
 450   0.0000       1.119238        30.4560 
 451   0.0000       1.128566        30.7098 
 452   0.0000       1.148800        31.2604 
 453   0.0000       1.156150        31.4604 
 454   0.0000       1.158679        31.5293 
 455   0.0000       1.166538        31.7431 
 456   0.0000       1.170634        31.8546 
 457   0.0000       1.180629        32.1266 
 458   0.0000       1.186494        32.2862 
 459   0.0000       1.199330        32.6354 
 460   0.0000       1.202777        32.7292 
 461   0.0000       1.207299        32.8523 
 462   0.0000       1.210576        32.9415 
 463   0.0000       1.215512        33.0758 
 464   0.0000       1.245917        33.9031 
 465   0.0000       1.253224        34.1020 
 466   0.0000       1.282110        34.8880 
 467   0.0000       1.289276        35.0830 
 468   0.0000       1.292944        35.1828 
 469   0.0000       1.298777        35.3415 
 470   0.0000       1.303301        35.4646 
 471   0.0000       1.304097        35.4863 
 472   0.0000       1.309341        35.6290 
 473   0.0000       1.310941        35.6725 
 474   0.0000       1.314921        35.7808 
 475   0.0000       1.318893        35.8889 
 476   0.0000       1.329502        36.1776 
 477   0.0000       1.332780        36.2668 
 478   0.0000       1.337303        36.3899 
 479   0.0000       1.347254        36.6606 
 480   0.0000       1.347577        36.6694 
 481   0.0000       1.351541        36.7773 
 482   0.0000       1.359691        36.9991 
 483   0.0000       1.366187        37.1758 
 484   0.0000       1.371843        37.3298 
 485   0.0000       1.374218        37.3944 
 486   0.0000       1.387875        37.7660 
 487   0.0000       1.401801        38.1449 
 488   0.0000       1.414927        38.5021 
 489   0.0000       1.432956        38.9927 
 490   0.0000       1.446754        39.3682 
 491   0.0000       1.455667        39.6107 
 492   0.0000       1.462205        39.7886 
 493   0.0000       1.472993        40.0822 
 494   0.0000       1.495950        40.7069 
 495   0.0000       1.508538        41.0494 
 496   0.0000       1.521818        41.4108 
 497   0.0000       1.525161        41.5017 
 498   0.0000       1.529766        41.6270 
 499   0.0000       1.541239        41.9392 
 500   0.0000       1.547539        42.1107 
 501   0.0000       1.560015        42.4502 
 502   0.0000       1.561707        42.4962 
 503   0.0000       1.568120        42.6707 
 504   0.0000       1.597946        43.4823 
 505   0.0000       1.599707        43.5302 
 506   0.0000       1.605480        43.6873 
 507   0.0000       1.606968        43.7278 
 508   0.0000       1.610516        43.8244 
 509   0.0000       1.618502        44.0417 
 510   0.0000       1.644045        44.7367 
 511   0.0000       1.647126        44.8206 
 512   0.0000       1.657216        45.0951 
 513   0.0000       1.660153        45.1751 
 514   0.0000       1.667588        45.3774 
 515   0.0000       1.667738        45.3815 
 516   0.0000       1.687831        45.9282 
 517   0.0000       1.689214        45.9658 
 518   0.0000       1.690334        45.9963 
 519   0.0000       1.690924        46.0124 
 520   0.0000       1.692243        46.0483 
 521   0.0000       1.694965        46.1223 
 522   0.0000       1.703037        46.3420 
 523   0.0000       1.706072        46.4246 
 524   0.0000       1.708061        46.4787 
 525   0.0000       1.710098        46.5341 
 526   0.0000       1.713169        46.6177 
 527   0.0000       1.715619        46.6844 
 528   0.0000       1.720094        46.8061 
 529   0.0000       1.723636        46.9025 
 530   0.0000       1.726241        46.9734 
 531   0.0000       1.727191        46.9993 
 532   0.0000       1.729259        47.0555 
 533   0.0000       1.733854        47.1806 
 534   0.0000       1.735508        47.2256 
 535   0.0000       1.738316        47.3020 
 536   0.0000       1.745554        47.4989 
 537   0.0000       1.749413        47.6039 
 538   0.0000       1.751663        47.6652 
 539   0.0000       1.756302        47.7914 
 540   0.0000       1.786286        48.6073 
 541   0.0000       1.796150        48.8757 
 542   0.0000       1.854402        50.4609 
 543   0.0000       1.859177        50.5908 
 544   0.0000       1.866518        50.7905 
 545   0.0000       1.870568        50.9007 
 546   0.0000       1.874273        51.0016 
 547   0.0000       1.877113        51.0788 
 548   0.0000       1.888223        51.3811 
 549   0.0000       1.890103        51.4323 
 550   0.0000       1.891788        51.4782 
 551   0.0000       1.897338        51.6292 
 552   0.0000       1.906916        51.8898 
 553   0.0000       1.910948        51.9995 
 554   0.0000       1.927342        52.4456 
 555   0.0000       1.931399        52.5560 
 556   0.0000       1.938206        52.7413 
 557   0.0000       1.940943        52.8158 
 558   0.0000       1.944252        52.9058 
 559   0.0000       1.955079        53.2004 
 560   0.0000       1.989056        54.1250 
 561   0.0000       1.993262        54.2394 
 562   0.0000       1.994755        54.2800 
 563   0.0000       1.997869        54.3648 
 564   0.0000       2.000936        54.4482 
 565   0.0000       2.002146        54.4812 
 566   0.0000       2.003621        54.5213 
 567   0.0000       2.005756        54.5794 
 568   0.0000       2.011534        54.7366 
 569   0.0000       2.018770        54.9335 
 570   0.0000       2.021863        55.0177 
 571   0.0000       2.024882        55.0998 
 572   0.0000       2.027942        55.1831 
 573   0.0000       2.032421        55.3050 
 574   0.0000       2.033889        55.3449 
 575   0.0000       2.035671        55.3934 
 576   0.0000       2.036627        55.4194 
 577   0.0000       2.038752        55.4773 
 578   0.0000       2.040721        55.5309 
 579   0.0000       2.042406        55.5767 
 580   0.0000       2.044843        55.6430 
 581   0.0000       2.049942        55.7817 
 582   0.0000       2.054813        55.9143 
 583   0.0000       2.059866        56.0518 
 584   0.0000       2.064636        56.1816 
 585   0.0000       2.066529        56.2331 
 586   0.0000       2.068987        56.3000 
 587   0.0000       2.072506        56.3958 
 588   0.0000       2.074744        56.4567 
 589   0.0000       2.076362        56.5007 
 590   0.0000       2.078318        56.5539 
 591   0.0000       2.079231        56.5788 
 592   0.0000       2.080829        56.6222 
 593   0.0000       2.085084        56.7380 
 594   0.0000       2.088602        56.8338 
 595   0.0000       2.091704        56.9182 
 596   0.0000       2.092291        56.9341 
 597   0.0000       2.094342        56.9900 
 598   0.0000       2.096966        57.0613 
 599   0.0000       2.100409        57.1550 
 600   0.0000       2.102813        57.2205 
 601   0.0000       2.104130        57.2563 
 602   0.0000       2.109298        57.3969 
 603   0.0000       2.111608        57.4598 
 604   0.0000       2.116697        57.5983 
 605   0.0000       2.125793        57.8458 
 606   0.0000       2.127033        57.8795 
 607   0.0000       2.130753        57.9807 
 608   0.0000       2.138739        58.1980 
 609   0.0000       2.139242        58.2117 
 610   0.0000       2.147716        58.4423 
 611   0.0000       2.148262        58.4572 
 612   0.0000       2.148792        58.4716 
 613   0.0000       2.156308        58.6761 
 614   0.0000       2.157269        58.7023 
 615   0.0000       2.160930        58.8019 
 616   0.0000       2.164866        58.9090 
 617   0.0000       2.167142        58.9709 
 618   0.0000       2.172724        59.1228 
 619   0.0000       2.174132        59.1611 
 620   0.0000       2.176668        59.2301 
 621   0.0000       2.180545        59.3356 
 622   0.0000       2.182671        59.3935 
 623   0.0000       2.185229        59.4631 
 624   0.0000       2.188910        59.5633 
 625   0.0000       2.189666        59.5838 
 626   0.0000       2.196384        59.7667 
 627   0.0000       2.199962        59.8640 
 628   0.0000       2.202272        59.9269 
 629   0.0000       2.204275        59.9814 
 630   0.0000       2.210882        60.1611 
 631   0.0000       2.212678        60.2100 
 632   0.0000       2.215676        60.2916 
 633   0.0000       2.220673        60.4276 
 634   0.0000       2.223384        60.5013 
 635   0.0000       2.228847        60.6500 
 636   0.0000       2.235043        60.8186 
 637   0.0000       2.240719        60.9731 
 638   0.0000       2.241047        60.9820 
 639   0.0000       2.253536        61.3218 
 640   0.0000       2.256051        61.3903 
 641   0.0000       2.257997        61.4432 
 642   0.0000       2.262066        61.5539 
 643   0.0000       2.265095        61.6364 
 644   0.0000       2.269056        61.7442 
 645   0.0000       2.271127        61.8005 
 646   0.0000       2.274400        61.8896 
 647   0.0000       2.277315        61.9689 
 648   0.0000       2.280753        62.0624 
 649   0.0000       2.282806        62.1183 
 650   0.0000       2.285848        62.2011 
 651   0.0000       2.289382        62.2973 
 652   0.0000       2.291712        62.3606 
 653   0.0000       2.292776        62.3896 
 654   0.0000       2.299360        62.5688 
 655   0.0000       2.301811        62.6355 
 656   0.0000       2.307750        62.7971 
 657   0.0000       2.309649        62.8487 
 658   0.0000       2.314007        62.9673 
 659   0.0000       2.315150        62.9984 
 660   0.0000       2.317156        63.0530 
 661   0.0000       2.320361        63.1402 
 662   0.0000       2.322066        63.1866 
 663   0.0000       2.324355        63.2489 
 664   0.0000       2.325683        63.2850 
 665   0.0000       2.335245        63.5452 
 666   0.0000       2.336281        63.5734 
 667   0.0000       2.336951        63.5917 
 668   0.0000       2.340494        63.6881 
 669   0.0000       2.342246        63.7358 
 670   0.0000       2.346782        63.8592 
 671   0.0000       2.349076        63.9216 
 672   0.0000       2.351727        63.9937 
 673   0.0000       2.353000        64.0284 
 674   0.0000       2.354725        64.0753 
 675   0.0000       2.357237        64.1437 
 676   0.0000       2.357917        64.1622 
 677   0.0000       2.362217        64.2792 
 678   0.0000       2.362743        64.2935 
 679   0.0000       2.363970        64.3269 
 680   0.0000       2.365127        64.3584 
 681   0.0000       2.366621        64.3990 
 682   0.0000       2.366759        64.4028 
 683   0.0000       2.367771        64.4303 
 684   0.0000       2.369172        64.4685 
 685   0.0000       2.370259        64.4980 
 686   0.0000       2.371745        64.5385 
 687   0.0000       2.372358        64.5551 
 688   0.0000       2.375038        64.6281 
 689   0.0000       2.376866        64.6778 
 690   0.0000       2.378750        64.7291 
 691   0.0000       2.380762        64.7838 
 692   0.0000       2.381733        64.8103 
 693   0.0000       2.382320        64.8262 
 694   0.0000       2.382800        64.8393 
 695   0.0000       2.383912        64.8695 
 696   0.0000       2.385451        64.9114 
 697   0.0000       2.387019        64.9541 
 698   0.0000       2.389351        65.0176 
 699   0.0000       2.389744        65.0282 
 700   0.0000       2.391357        65.0721 
 701   0.0000       2.394147        65.1480 
 702   0.0000       2.395730        65.1911 
 703   0.0000       2.396529        65.2129 
 704   0.0000       2.399083        65.2824 
 705   0.0000       2.400621        65.3242 
 706   0.0000       2.401442        65.3466 
 707   0.0000       2.407203        65.5033 
 708   0.0000       2.410273        65.5869 
 709   0.0000       2.412023        65.6345 
 710   0.0000       2.422544        65.9208 
 711   0.0000       2.424685        65.9790 
 712   0.0000       2.427478        66.0550 
 713   0.0000       2.430496        66.1372 
 714   0.0000       2.432809        66.2001 
 715   0.0000       2.436782        66.3082 
 716   0.0000       2.437810        66.3362 
 717   0.0000       2.440638        66.4131 
 718   0.0000       2.443128        66.4809 
 719   0.0000       2.445229        66.5381 
 720   0.0000       2.448067        66.6153 
 721   0.0000       2.449451        66.6530 
 722   0.0000       2.452646        66.7399 
 723   0.0000       2.455144        66.8079 
 724   0.0000       2.457214        66.8642 
 725   0.0000       2.461347        66.9767 
 726   0.0000       2.461618        66.9840 
 727   0.0000       2.467723        67.1502 
 728   0.0000       2.469874        67.2087 
 729   0.0000       2.473656        67.3116 
 730   0.0000       2.474615        67.3377 
 731   0.0000       2.480566        67.4996 
 732   0.0000       2.486353        67.6571 
 733   0.0000       2.489650        67.7468 
 734   0.0000       2.492428        67.8224 
 735   0.0000       2.494139        67.8690 
 736   0.0000       2.497068        67.9487 
 737   0.0000       2.498781        67.9953 
 738   0.0000       2.500562        68.0438 
 739   0.0000       2.503109        68.1131 
 740   0.0000       2.505490        68.1778 
 741   0.0000       2.508070        68.2481 
 742   0.0000       2.510056        68.3021 
 743   0.0000       2.512896        68.3794 
 744   0.0000       2.514748        68.4298 
 745   0.0000       2.516150        68.4679 
 746   0.0000       2.520560        68.5879 
 747   0.0000       2.524265        68.6887 
 748   0.0000       2.527642        68.7806 
 749   0.0000       2.532501        68.9129 
 750   0.0000       2.536382        69.0185 
 751   0.0000       2.539696        69.1086 
[...]
      f+3     :     0.003324
      f-3     :     0.002317
 48 H s       :     0.821677  s :     0.821677
      pz      :     0.012270  p :     0.061015
      px      :     0.021558
      py      :     0.027187
 49 N s       :     3.008953  s :     3.008953
      pz      :     1.242023  p :     3.766212
      px      :     1.264601
      py      :     1.259588
      dz2     :     0.031297  d :     0.154193
      dxz     :     0.041251
      dyz     :     0.034598
      dx2y2   :     0.008635
      dxy     :     0.038412
      f0      :     0.002214  f :     0.009618
      f+1     :     0.001248
      f-1     :     0.001236
      f+2     :     0.001518
      f-2     :     0.001525
      f+3     :     0.001146
      f-3     :     0.000732
 50 H s       :     0.720240  s :     0.720240
      pz      :     0.018985  p :     0.136791
      px      :     0.046560
      py      :     0.071246
 51 H s       :     0.821368  s :     0.821368
      pz      :     0.021548  p :     0.061107
      px      :     0.024245
      py      :     0.015314
 52 H s       :     0.723234  s :     0.723234
      pz      :     0.037387  p :     0.127819
      px      :     0.044551
      py      :     0.045881
 53 H s       :     0.821575  s :     0.821575
      pz      :     0.023327  p :     0.061038
      px      :     0.014304
      py      :     0.023407
 54 H s       :     0.723565  s :     0.723565
      pz      :     0.041595  p :     0.130221
      px      :     0.044182
      py      :     0.044444
 55 C s       :     2.850877  s :     2.850877
      pz      :     1.046411  p :     3.092906
      px      :     0.985676
      py      :     1.060819
      dz2     :     0.030354  d :     0.318393
      dxz     :     0.083814
      dyz     :     0.079155
      dx2y2   :     0.044016
      dxy     :     0.081053
      f0      :     0.004779  f :     0.038286
      f+1     :     0.007344
      f-1     :     0.003119
      f+2     :     0.004476
      f-2     :     0.006444
      f+3     :     0.007165
      f-3     :     0.004959
 56 H s       :     0.821964  s :     0.821964
      pz      :     0.022219  p :     0.061074
      px      :     0.020732
      py      :     0.018123
 57 N s       :     3.009232  s :     3.009232
      pz      :     1.262456  p :     3.766922
      px      :     1.246786
      py      :     1.257680
      dz2     :     0.014485  d :     0.154016
      dxz     :     0.038469
      dyz     :     0.040479
      dx2y2   :     0.021639
      dxy     :     0.038943
      f0      :     0.001289  f :     0.009604
      f+1     :     0.001655
      f-1     :     0.000905
      f+2     :     0.001069
      f-2     :     0.001742
      f+3     :     0.001852
      f-3     :     0.001093
 58 H s       :     0.719440  s :     0.719440
      pz      :     0.043080  p :     0.140832
      px      :     0.051365
      py      :     0.046388
 59 H s       :     0.820894  s :     0.820894
      pz      :     0.018412  p :     0.061047
      px      :     0.017918
      py      :     0.024718
 60 H s       :     0.720497  s :     0.720497
      pz      :     0.053079  p :     0.136452
      px      :     0.022382
      py      :     0.060991


                      *****************************
                      * MAYER POPULATION ANALYSIS *
                      *****************************

  NA   - Mulliken gross atomic population
  ZA   - Total nuclear charge
  QA   - Mulliken gross atomic charge
  VA   - Mayer's total valence
  BVA  - Mayer's bonded valence
  FA   - Mayer's free valence

  ATOM       NA         ZA         QA         VA         BVA        FA
  0 C      6.2516     6.0000    -0.2516     3.8933     3.8933     0.0000
  1 N      7.2902     7.0000    -0.2902     3.2259     3.2259     0.0000
  2 H      0.8639     1.0000     0.1361     0.9651     0.9651     0.0000
  3 H      0.8582     1.0000     0.1418     0.9646     0.9646     0.0000
  4 H      0.8607     1.0000     0.1393     0.9634     0.9634     0.0000
  5 H      0.7295     1.0000     0.2705     1.0121     1.0121     0.0000
  6 H      0.7303     1.0000     0.2697     1.0006     1.0006     0.0000
  7 H      0.7172     1.0000     0.2828     0.9941     0.9941     0.0000
  8 Pb    21.0048    22.0000     0.9952     1.7274     1.7274     0.0000
  9 Cl    17.6048    17.0000    -0.6048     0.7011     0.7011     0.0000
 10 Cl    17.7167    17.0000    -0.7167     0.5111     0.5111     0.0000
 11 Cl    17.6596    17.0000    -0.6596     0.6123     0.6123    -0.0000
 12 Cl    17.7015    17.0000    -0.7015     0.5441     0.5441    -0.0000
 13 Cl    17.6664    17.0000    -0.6664     0.6057     0.6057    -0.0000
 14 Cl    17.5907    17.0000    -0.5907     0.7158     0.7158     0.0000
 15 N      7.2740     7.0000    -0.2740     3.3698     3.3698     0.0000
 16 C      6.2403     6.0000    -0.2403     3.8483     3.8483     0.0000
 17 H      0.7242     1.0000     0.2758     1.0042     1.0042     0.0000
 18 H      0.7009     1.0000     0.2991     0.9612     0.9612     0.0000
 19 H      0.8520     1.0000     0.1480     0.9803     0.9803     0.0000
 20 H      0.8629     1.0000     0.1371     1.0002     1.0002     0.0000
 21 H      0.8784     1.0000     0.1216     0.9720     0.9720     0.0000
 22 H      0.7079     1.0000     0.2921     0.9482     0.9482     0.0000
 23 Cl    17.6667    17.0000    -0.6667     0.6038     0.6038     0.0000
 24 Cl    17.7034    17.0000    -0.7034     0.5412     0.5412     0.0000
 25 Pb    21.0068    22.0000     0.9932     1.7283     1.7283     0.0000
 26 N      7.2776     7.0000    -0.2776     3.3680     3.3680    -0.0000
 27 C      6.2361     6.0000    -0.2361     3.8377     3.8377    -0.0000
 28 H      0.7070     1.0000     0.2930     0.9694     0.9694    -0.0000
 29 H      0.7041     1.0000     0.2959     0.9436     0.9436    -0.0000
 30 H      0.8795     1.0000     0.1205     0.9691     0.9691    -0.0000
 31 H      0.8482     1.0000     0.1518     0.9815     0.9815    -0.0000
 32 H      0.8621     1.0000     0.1379     1.0029     1.0029    -0.0000
 33 H      0.7255     1.0000     0.2745     1.0038     1.0038    -0.0000
 34 Cl    17.6079    17.0000    -0.6079     0.6958     0.6958     0.0000
 35 H      0.8634     1.0000     0.1366     0.9650     0.9650     0.0000
 36 H      0.7307     1.0000     0.2693     1.0019     1.0019    -0.0000
 37 H      0.8595     1.0000     0.1405     0.9632     0.9632    -0.0000
 38 C      6.2509     6.0000    -0.2509     3.8898     3.8898    -0.0000
 39 N      7.2898     7.0000    -0.2898     3.2297     3.2297    -0.0000
 40 Cl    17.6551    17.0000    -0.6551     0.6179     0.6179     0.0000
 41 H      0.7243     1.0000     0.2757     1.0075     1.0075    -0.0000
 42 H      0.7196     1.0000     0.2804     0.9925     0.9925    -0.0000
 43 H      0.8582     1.0000     0.1418     0.9641     0.9641    -0.0000
 44 Cl    17.7133    17.0000    -0.7133     0.5162     0.5162     0.0000
 45 H      0.8648     1.0000     0.1352     0.9708     0.9708    -0.0000
 46 H      0.7278     1.0000     0.2722     1.0164     1.0164    -0.0000
 47 C      6.2449     6.0000    -0.2449     3.8951     3.8951    -0.0000
 48 H      0.8632     1.0000     0.1368     0.9646     0.9646    -0.0000
 49 N      7.2850     7.0000    -0.2850     3.2046     3.2046    -0.0000
 50 H      0.7375     1.0000     0.2625     1.0222     1.0222    -0.0000
 51 H      0.8629     1.0000     0.1371     0.9648     0.9648     0.0000
 52 H      0.7257     1.0000     0.2743     0.9906     0.9906    -0.0000
 53 H      0.8632     1.0000     0.1368     0.9649     0.9649    -0.0000
 54 H      0.7233     1.0000     0.2767     0.9878     0.9878     0.0000
 55 C      6.2460     6.0000    -0.2460     3.8941     3.8941    -0.0000
 56 H      0.8633     1.0000     0.1367     0.9642     0.9642     0.0000
 57 N      7.2867     7.0000    -0.2867     3.2007     3.2007     0.0000
 58 H      0.7290     1.0000     0.2710     1.0207     1.0207     0.0000
 59 H      0.8649     1.0000     0.1351     0.9704     0.9704     0.0000
 60 H      0.7359     1.0000     0.2641     1.0186     1.0186     0.0000

  Mayer bond orders larger than 0.1
B(  0-C ,  1-N ) :   0.9350 B(  0-C ,  2-H ) :   0.9750 B(  0-C ,  3-H ) :   0.9748 
B(  0-C ,  4-H ) :   0.9745 B(  1-N ,  5-H ) :   0.7891 B(  1-N ,  6-H ) :   0.8089 
B(  1-N ,  7-H ) :   0.7967 B(  5-H , 11-Cl) :   0.2248 B(  6-H ,  9-Cl) :   0.1896 
B(  7-H , 10-Cl) :   0.1911 B(  8-Pb,  9-Cl) :   0.4829 B(  8-Pb, 10-Cl) :   0.1780 
B(  8-Pb, 11-Cl) :   0.3527 B(  8-Pb, 12-Cl) :   0.1416 B(  8-Pb, 13-Cl) :   0.2649 
B(  8-Pb, 14-Cl) :   0.2989 B( 10-Cl, 52-H ) :   0.1649 B( 12-Cl, 17-H ) :   0.2020 
B( 12-Cl, 46-H ) :   0.2392 B( 13-Cl, 18-H ) :   0.1317 B( 13-Cl, 50-H ) :   0.2314 
B( 14-Cl, 25-Pb) :   0.2999 B( 15-N , 16-C ) :   0.9306 B( 15-N , 17-H ) :   0.8002 
B( 15-N , 18-H ) :   0.8239 B( 15-N , 22-H ) :   0.8690 B( 16-C , 19-H ) :   0.9700 
B( 16-C , 20-H ) :   0.9669 B( 16-C , 21-H ) :   0.9705 B( 23-Cl, 25-Pb) :   0.2652 
B( 23-Cl, 28-H ) :   0.1391 B( 23-Cl, 60-H ) :   0.2238 B( 24-Cl, 25-Pb) :   0.1373 
B( 24-Cl, 33-H ) :   0.1969 B( 24-Cl, 58-H ) :   0.2480 B( 25-Pb, 34-Cl) :   0.4799 
B( 25-Pb, 40-Cl) :   0.3405 B( 25-Pb, 44-Cl) :   0.1964 B( 26-N , 27-C ) :   0.9259 
B( 26-N , 28-H ) :   0.8247 B( 26-N , 29-H ) :   0.8655 B( 26-N , 33-H ) :   0.8061 
B( 27-C , 30-H ) :   0.9704 B( 27-C , 31-H ) :   0.9690 B( 27-C , 32-H ) :   0.9660 
B( 34-Cl, 36-H ) :   0.1884 B( 35-H , 38-C ) :   0.9749 B( 36-H , 39-N ) :   0.8111 
B( 37-H , 38-C ) :   0.9742 B( 38-C , 39-N ) :   0.9329 B( 38-C , 43-H ) :   0.9747 
B( 39-N , 41-H ) :   0.7808 B( 39-N , 42-H ) :   0.8077 B( 40-Cl, 41-H ) :   0.2282 
B( 42-H , 44-Cl) :   0.1780 B( 44-Cl, 54-H ) :   0.1634 B( 45-H , 47-C ) :   0.9749 
B( 46-H , 49-N ) :   0.7755 B( 47-C , 48-H ) :   0.9757 B( 47-C , 49-N ) :   0.9394 
B( 47-C , 51-H ) :   0.9749 B( 49-N , 50-H ) :   0.7893 B( 49-N , 52-H ) :   0.8197 
B( 53-H , 55-C ) :   0.9759 B( 54-H , 57-N ) :   0.8191 B( 55-C , 56-H ) :   0.9749 
B( 55-C , 57-N ) :   0.9377 B( 55-C , 59-H ) :   0.9751 B( 57-N , 58-H ) :   0.7711 
B( 57-N , 60-H ) :   0.7922 

-------
TIMINGS
-------

Total SCF time: 0 days 0 hours 17 min 44 sec 

Total time                  ....    1064.730 sec
Sum of individual times     ....     625.335 sec  ( 58.7%)

Fock matrix formation       ....     555.142 sec  ( 52.1%)
  Coulomb formation         ....     508.207 sec  ( 91.5% of F)
  Split-RI-J                ....      39.712 sec  (  7.2% of F)
  Chain of spheres X        ....     887.545 sec  (159.9% of F)
  COS-X 1 center corr.      ....       0.000 sec  (  0.0% of F)
  XC integration            ....      46.869 sec  (  8.4% of F)
    Basis function eval.    ....      20.068 sec  ( 42.8% of XC)
    Density eval.           ....      12.590 sec  ( 26.9% of XC)
    XC-Functional eval.     ....       1.357 sec  (  2.9% of XC)
    XC-Potential eval.      ....      12.135 sec  ( 25.9% of XC)
Diagonalization             ....       1.133 sec  (  0.1%)
Density matrix formation    ....       0.360 sec  (  0.0%)
Population analysis         ....       6.264 sec  (  0.6%)
Initial guess               ....       1.002 sec  (  0.1%)
Orbital Transformation      ....       0.000 sec  (  0.0%)
Orbital Orthonormalization  ....       0.889 sec  (  0.1%)
DIIS solution               ....       0.330 sec  (  0.0%)
SOSCF solution              ....       0.735 sec  (  0.1%)
Grid generation             ....      60.368 sec  (  5.7%)

------------------------------------------------------------------------------
                              ORCA MP2 CALCULATION
------------------------------------------------------------------------------


-------------
RI-MP2 ENERGY
-------------
Dimension of the basis                    ... 1095
Memory devoted to MP2                     ... 4000 MB   
Data format for buffers                   ... DOUBLE
Compression type for matrix containers    ... UNCOMPRESSED
Overall scaling of the MP2 energy         ...   2.700e-01 Eh
Calculating two index integrals           ... done (    0.082 sec)
Cholesky decomposition of V**-1           ... done (    0.793 sec)

-----------------
RI-TRANSFORMATION (AUX index driven)
-----------------

Dimension of the orbital-basis         ... 1095
Dimension of the aux-basis             ... 1897
Transformation of internal/external MOs...    0- 172 to  173-1094
Number Format for Storage              ... Double (8 Byte)
Integral mode                          ... Direct

First Phase: integral generation and transformation of MO indices
  Aux angular momentum 0               ... done (   35.820 sec)
  Aux angular momentum 1               ... done (   37.736 sec)
  Aux angular momentum 2               ... done (   46.469 sec)
  Aux angular momentum 3               ... done (   19.036 sec)
  Aux angular momentum 4               ... done (   19.691 sec)
Closing buffer VIA ( 2.25 GB; CompressionRatio= 1.00)
  Phase 1 completed in   158.904 sec
Second Phase: sorting and transformation of aux index

IA-Transformation
Memory available                       ... 3892 MB 
Max. # MO pairs treated in a batch     ... 173    
# of internal orbitals                 ... 173
# batches for internal orbitals        ... 1
Closing buffer IAV ( 2.25 GB; CompressionRatio= 1.00)
(ia|v) transformation done in    67.336 sec

  Phase 2 completed in    69.316 sec
RI-Integral transformation completed in   228.223 sec
Opening buffers                              ... done

Starting loop over batches of integrals:

Operator 0  - window                       ... (  0-172)x(173-1094)
Operator 0  - Memory available             ...  4000 MB
Operator 0  - Memory needed per MO         ...  13.3 MB
Operator 0  - Number of orbitals per batch ... 173
Operator 0  - Number of batches            ... 1

OPERATOR  0   PASS   0:  MOs     0 ...  172
  Reading integrals       ... ok
  Internal MO   2
  Internal MO   5
  Internal MO   8
  Internal MO  11
  Internal MO  14
  Internal MO  17
  Internal MO  20
  Internal MO  23
  Internal MO  26
  Internal MO  29
  Internal MO  32
  Internal MO  35
  Internal MO  38
  Internal MO  41
  Internal MO  44
  Internal MO  47
  Internal MO  50
  Internal MO  53
  Internal MO  56
  Internal MO  59
  Internal MO  62
  Internal MO  65
  Internal MO  68
  Internal MO  71
  Internal MO  74
  Internal MO  77
  Internal MO  80
  Internal MO  83
  Internal MO  86
  Internal MO  89
  Internal MO  92
  Internal MO  95
  Internal MO  98
  Internal MO 101
  Internal MO 104
  Internal MO 107
  Internal MO 110
  Internal MO 113
  Internal MO 116
  Internal MO 119
  Internal MO 122
  Internal MO 125
  Internal MO 128
  Internal MO 131
  Internal MO 134
  Internal MO 137
  Internal MO 140
  Internal MO 143
  Internal MO 146
  Internal MO 149
  Internal MO 152
  Internal MO 155
  Internal MO 158
  Internal MO 161
  Internal MO 164
  Internal MO 167
  Internal MO 170
Time spent in pair loops =  2815.587 sec

-----------------------------------------------
 RI-MP2 CORRELATION ENERGY:     -2.219220021 Eh
-----------------------------------------------


-------
TIMINGS
-------

Total time                : 3044.721 sec
Integral trafo            :  228.235 sec (  7.5%)
I/O of integrals          :    1.638 sec (  0.1%)
K(i,j) Operators          : 2630.750 sec ( 86.4%)
T(i,j) pair energies      :  154.145 sec (  5.1%)
V-calculation             :    0.082 sec (  0.0%)
V**(-1/2)                 :    0.793 sec (  0.0%)
Gamma(ia|P)               :    0.000 sec (  0.0%)
Gamma-Trafo               :    0.000 sec (  0.0%)
D(virtual)                :    0.000 sec (  0.0%)
D(internal)               :    0.000 sec (  0.0%)
W(virtual)                :    0.000 sec (  0.0%)
W(internal)               :    0.000 sec (  0.0%)
L(virtual)                :    0.000 sec (  0.0%)
L(internal)               :    0.000 sec (  0.0%)
G(D)                      :    0.000 sec (  0.0%)
G(Z)                      :    0.000 sec (  0.0%)
Z-Vector Solution         :    0.000 sec (  0.0%)
Z-Vector Solution         :    0.000 sec (  0.0%)
3-Index Derivative 
+ Separable RIJ part      :    0.000 sec (  0.0%)
2-Index Derivative 
+ Separable RIJ part      :    0.000 sec (  0.0%)
Separable Gradient (COSX) :    0.000 sec (  0.0%)


---------------------------------------
MP2 TOTAL ENERGY:    -6025.869335193 Eh
---------------------------------------

Entering the calculation of the dispersion correction...

Checking the input atom types...

Done


-------------------------------------------------------------------------------
                          DFT DISPERSION CORRECTION                            
                                                                               
                                DFTD3 V2.1  Rev 6                               
                          USING Becke-Johnson damping                          
-------------------------------------------------------------------------------
The B2PLYP functional is recognized
Active option DFTDOPT                   ...         4   

molecular C6(AA) [au] = 68407.473373 


            DFT-D V3
 parameters
 s6 scaling factor         :     0.6400 
 a1 scaling factor         :     0.3065 
 s8 scaling factor         :     0.9147 
 a2 scaling factor         :     5.0570 
 ad hoc parameters k1-k3   :    16.0000     1.3333    -4.0000 

 Edisp/kcal,au: -50.502666509692  -0.080481113370 
 E6   /kcal   : -25.128129040 
 E8   /kcal   : -25.374537470 
 % E8         :  50.243955861 

-------------------------   ----------------
Dispersion correction           -0.080481113
-------------------------   ----------------


-------------------------   --------------------
FINAL SINGLE POINT ENERGY     -6025.949816306297
-------------------------   --------------------


                            ***************************************
                            *     ORCA property calculations      *
                            ***************************************


  WARNING: The energy has been calculated at the MP2 level but the densities
           used in the property calculations are still SCF densities
           MP2 response densities have not been calculated 
           use %mp2 Density relaxed end
           or  %mp2 Density unrelaxed end

                                    ---------------------
                                    Active property flags
                                    ---------------------
   (+) Dipole Moment


------------------------------------------------------------------------------
                       ORCA ELECTRIC PROPERTIES CALCULATION
------------------------------------------------------------------------------

Dipole Moment Calculation                       ... on
Quadrupole Moment Calculation                   ... off
Polarizability Calculation                      ... off
GBWName                                         ... Pb2Cl11_6NH3CH3_-1_mp2_sp2_2.orca.gbw
Electron density file                           ... Pb2Cl11_6NH3CH3_-1_mp2_sp2_2.orca.scfp.tmp

-------------
DIPOLE MOMENT
-------------
                                X             Y             Z
Electronic contribution:    -28.62981       4.46401      30.58241
Nuclear contribution   :     29.97250      -4.81290     -32.09088
                        -----------------------------------------
Total Dipole Moment    :      1.34269      -0.34890      -1.50847
                        -----------------------------------------
Magnitude (a.u.)       :      2.04939
Magnitude (Debye)      :      5.20914


Timings for individual modules:

Sum of individual times         ...     4118.559 sec (=  68.643 min)
GTO integral calculation        ...        6.547 sec (=   0.109 min)   0.2 %
SCF iterations                  ...     1066.694 sec (=  17.778 min)  25.9 %
MP2 module                      ...     3045.319 sec (=  50.755 min)  73.9 %
                             ****ORCA TERMINATED NORMALLY****
TOTAL RUN TIME: 0 days 1 hours 8 minutes 39 seconds 373 msec
