
                                 *****************
                                 * O   R   C   A *
                                 *****************

           --- An Ab Initio, DFT and Semiempirical electronic structure package ---

                  #######################################################
                  #                        -***-                        #
                  #  Department of molecular theory and spectroscopy    #
                  #              Directorship: Frank Neese              #
                  # Max Planck Institute for Chemical Energy Conversion #
                  #                  D-45470 Muelheim/Ruhr              #
                  #                       Germany                       #
                  #                                                     #
                  #                  All rights reserved                #
                  #                        -***-                        #
                  #######################################################


                         Program Version 3.0.3 - RELEASE   -


 With contributions from (in alphabetic order):
   Ute Becker             : Parallelization
   Dmytro Bykov           : SCF Hessian
   Dmitry Ganyushin       : Spin-Orbit,Spin-Spin,Magnetic field MRCI
   Andreas Hansen         : Spin unrestricted coupled pair/coupled cluster methods
   Dimitrios Liakos       : Extrapolation schemes; parallel MDCI
   Robert Izsak           : Overlap fitted RIJCOSX, COSX-SCS-MP3
   Christian Kollmar      : KDIIS, OOCD, Brueckner-CCSD(T), CCSD density
   Simone Kossmann        : Meta GGA functionals, TD-DFT gradient, OOMP2, MP2 Hessian
   Taras Petrenko         : DFT Hessian,TD-DFT gradient, ASA and ECA modules, normal mode analysis, Resonance Raman, ABS, FL, XAS/XES, NRVS
   Christoph Reimann      : Effective Core Potentials
   Michael Roemelt        : Restricted open shell CIS
   Christoph Riplinger    : Improved optimizer, TS searches, QM/MM, DLPNO-CCSD
   Barbara Sandhoefer     : DKH picture change effects
   Igor Schapiro          : Molecular dynamics
   Kantharuban Sivalingam : CASSCF convergence, NEVPT2
   Boris Wezisla          : Elementary symmetry handling
   Frank Wennmohs         : Technical directorship


 We gratefully acknowledge several colleagues who have allowed us to
 interface, adapt or use parts of their codes:
   Stefan Grimme, W. Hujo, H. Kruse, T. Risthaus : VdW corrections, initial TS optimization,
                                                   DFT functionals, gCP
   Ed Valeev                                     : LibInt (2-el integral package), F12 methods
   Garnet Chan, S. Sharma, R. Olivares           : DMRG
   Ulf Ekstrom                                   : XCFun DFT Library
   Mihaly Kallay                                 : mrcc  (arbitrary order and MRCC methods)
   Andreas Klamt, Michael Diedenhofen            : otool_cosmo (COSMO solvation model)
   Frank Weinhold                                : gennbo (NPA and NBO analysis)
   Christopher J. Cramer and Donald G. Truhlar   : smd solvation model


 Your calculation uses the libint2 library for the computation of 2-el integrals
 For citations please refer to: http://libint.valeyev.net

 This ORCA versions uses:
   CBLAS   interface :  Fast vector & matrix operations
   LAPACKE interface :  Fast linear algebra routines
   SCALAPACK package :  Parallel linear algebra routines


Your calculation utilizes the basis: Ahlrichs-TZV
Cite in your paper:
H - Kr: A. Schaefer, H. Horn and R. Ahlrichs, J. Chem. Phys. 97, 2571 (1992).

The def2-TZV basis will be loaded
Cite in your paper:
 	F. Weigend, R. Ahlrichs, Phys. Chem. Chem. Phys. 2005, 7, 3297.

Your calculation utilizes the atom-pairwise dispersion correction
with the Becke-Johnson damping scheme (D3BJ)
Cite in your paper:
S.Grimme, S.Ehrlich, L.Goerigk, J Comput Chem, (2011), 32, 1456–1465 
S.Grimme, J.Antony, S.Ehrlich and H.Krieg, J.Chem.Phys., 132, (2010), 154104 
   

================================================================================
                                        WARNINGS
                       Please study these warnings very carefully!
================================================================================

WARNING: The RI method has been chosen with no auxiliary basis (AUX or GTOAUX in BASIS block)
        Standard TZV/J expansion basis used (GTOAUX=TZV_J)

Now building the actual basis set
cite the ECPs for Pb [SD(60,MDF)] as follows:
  B. Metz, H. Stoll, M. Dolg, J. Chem. Phys. 113, 2563 (2000).

ECP parameters for Pb [SD(60,MDF)] have been obtained from:
  pseudopotential library of the Stuttgart/Cologne group
  http://www.theochem.uni-stuttgart.de/pseudopotentials/

cite the ECP basis sets for Pb [DEF2-TZVP] as follows:
  F. Weigend, R. Ahlrichs; Phys. Chem. Chem. Phys. 7, 3297(2005).

ECP basis sets for Pb [DEF2-TZVP] have been obtained from:
  Turbomole basis set library
  ftp://ftp.chemie.uni-karlsruhe.de/pub/basen/



INFO   : the flag for use of LIBINT has been found!

================================================================================
                                       INPUT FILE
================================================================================
NAME = PbMACl3_mp2_md_4.orca
|  1> ! RIJCOSX RI-B2PLYP D3BJ def2-TZVP ECP{def2-TZVP} TIGHTSCF Grid5 FinalGrid6 SlowConv MORead
|  2> %method
|  3>  RunTyp Gradient
|  4>  end
|  5> %maxcore 1000
|  6> %moinp "previous.gbw"
|  7> *xyz 0 1
|  8> C -0.825143 1.161160 -1.743980 
|  9> N -0.615877 -0.325527 -1.417870 
| 10> H -1.450530 -0.622084 -0.856567 
| 11> H 0.267721 -0.584441 -0.926534 
| 12> H -0.449599 -0.788554 -2.298700 
| 13> H -1.069750 1.598270 -0.754533 
| 14> H -1.659280 1.230840 -2.457900 
| 15> H 0.083243 1.518980 -2.229010 
| 16> Pb -3.112040 -2.543290 -2.391720 
| 17> Cl -0.753440 -3.501800 -2.641850 
| 18> Cl -3.188650 -0.276280 -1.664120 
| 19> Cl -4.535470 -4.074190 -0.963729 
| 20> *
| 21> 
| 22>                          ****END OF INPUT****
================================================================================

                     *******************************
                     * Energy+Gradient Calculation *
                     *******************************

---------------------------------
CARTESIAN COORDINATES (ANGSTROEM)
---------------------------------
  C     -0.825143    1.161160   -1.743980
  N     -0.615877   -0.325527   -1.417870
  H     -1.450530   -0.622084   -0.856567
  H      0.267721   -0.584441   -0.926534
  H     -0.449599   -0.788554   -2.298700
  H     -1.069750    1.598270   -0.754533
  H     -1.659280    1.230840   -2.457900
  H      0.083243    1.518980   -2.229010
  Pb    -3.112040   -2.543290   -2.391720
  Cl    -0.753440   -3.501800   -2.641850
  Cl    -3.188650   -0.276280   -1.664120
  Cl    -4.535470   -4.074190   -0.963729

----------------------------
CARTESIAN COORDINATES (A.U.)
----------------------------
  NO LB      ZA    FRAG    MASS        X           Y           Z
   0 C     6.0000    0    12.011         -1.559294291322183          2.194274397664000         -3.295644583035985
   1 N     7.0000    0    14.007         -1.163838862181019         -0.615156879196983         -2.679385993502925
   2 H     1.0000    0     1.008         -2.741104449036794         -1.175568392294268         -1.618677045354525
   3 H     1.0000    0     1.008          0.505919370299531         -1.104433431435070         -1.750895513766593
   4 H     1.0000    0     1.008         -0.849618980084861         -1.490151101808139         -4.343913464044782
   5 H     1.0000    0     1.008         -2.021534531762259          3.020292588062319         -1.425860729006004
   6 H     1.0000    0     1.008         -3.135584779492854          2.325950514675633         -4.644757864565045
   7 H     1.0000    0     1.008          0.157306472566007          2.870456202903703         -4.212218449771809
   8 Pb   22.0000*   0   207.200  -5.880903317808292  -4.806121579140580  -4.519695789022136
   9 Cl   17.0000    0    35.453         -1.423795258341628         -6.617442975765439         -4.992372986899858
  10 Cl   17.0000    0    35.453         -6.025675236927999         -0.522093536279763         -3.144731053981034
  11 Cl   17.0000    0    35.453         -8.570796188615819         -7.699103317560624         -1.821183877317794
* core charge reduced due to ECP

--------------------------------
INTERNAL COORDINATES (ANGSTROEM)
--------------------------------
 C      0   0   0   0.000000     0.000     0.000
 N      1   0   0   1.536352     0.000     0.000
 H      2   1   0   1.048643   106.192     0.000
 H      2   1   3   1.043644   117.085   235.953
 H      2   1   3   1.008912   106.334   126.419
 H      1   2   3   1.109010   102.830    49.864
 H      1   2   3   1.100146   107.596   290.630
 H      1   2   3   1.090163   107.371   173.664
 Pb     3   2   1   2.967885   110.597   112.379
 Cl     9   3   2   2.558183    77.113    48.742
 Cl     3   2   1   1.947507   115.989    54.310
 Cl     9   3   2   2.531594   114.485   155.415

---------------------------
INTERNAL COORDINATES (A.U.)
---------------------------
 C      0   0   0   0.000000     0.000     0.000
 N      1   0   0   2.903285     0.000     0.000
 H      2   1   0   1.981649   106.192     0.000
 H      2   1   3   1.972201   117.085   235.953
 H      2   1   3   1.906568   106.334   126.419
 H      1   2   3   2.095725   102.830    49.864
 H      1   2   3   2.078975   107.596   290.630
 H      1   2   3   2.060109   107.371   173.664
 Pb     3   2   1   5.608490   110.597   112.379
 Cl     9   3   2   4.834265    77.113    48.742
 Cl     3   2   1   3.680255   115.989    54.310
 Cl     9   3   2   4.784019   114.485   155.415

---------------------
BASIS SET INFORMATION
---------------------
There are 5 groups of distinct atoms

 Group   1 Type C   : 11s6p2d1f contracted to 5s3p2d1f pattern {62111/411/11/1}
 Group   2 Type N   : 11s6p2d1f contracted to 5s3p2d1f pattern {62111/411/11/1}
 Group   3 Type H   : 5s1p contracted to 3s1p pattern {311/1}
 Group   4 Type Pb  : 10s9p8d2f contracted to 6s5p3d2f pattern {421111/33111/611/11}
 Group   5 Type Cl  : 14s9p3d1f contracted to 5s5p2d1f pattern {73211/51111/21/1}

Atom   0C    basis set group =>   1
Atom   1N    basis set group =>   2
Atom   2H    basis set group =>   3
Atom   3H    basis set group =>   3
Atom   4H    basis set group =>   3
Atom   5H    basis set group =>   3
Atom   6H    basis set group =>   3
Atom   7H    basis set group =>   3
Atom   8Pb   basis set group =>   4
Atom   9Cl   basis set group =>   5
Atom  10Cl   basis set group =>   5
Atom  11Cl   basis set group =>   5
-------------------------------
AUXILIARY BASIS SET INFORMATION
-------------------------------
There are 5 groups of distinct atoms

 Group   1 Type C   : 12s5p4d2f1g contracted to 6s4p3d1f1g pattern {711111/2111/211/2/1}
 Group   2 Type N   : 12s5p4d2f1g contracted to 6s4p3d1f1g pattern {711111/2111/211/2/1}
 Group   3 Type H   : 5s2p1d contracted to 3s1p1d pattern {311/2/1}
 Group   4 Type Pb  : 31s12p8d6f3g contracted to 31s12p8d6f3g pattern {1111111111111111111111111111111/111111111111/11111111/111111/111}
 Group   5 Type Cl  : 14s5p5d2f1g contracted to 8s4p3d1f1g pattern {71111111/2111/311/2/1}

Atom   0C    basis set group =>   1
Atom   1N    basis set group =>   2
Atom   2H    basis set group =>   3
Atom   3H    basis set group =>   3
Atom   4H    basis set group =>   3
Atom   5H    basis set group =>   3
Atom   6H    basis set group =>   3
Atom   7H    basis set group =>   3
Atom   8Pb   basis set group =>   4
Atom   9Cl   basis set group =>   5
Atom  10Cl   basis set group =>   5
Atom  11Cl   basis set group =>   5

-------------------------
ECP PARAMETER INFORMATION
-------------------------

 Group 1, Type Pb ECP SD(60,MDF) (replacing 60 core electrons, lmax=5)

Atom   8Pb   ECP group =>   1


------------------------------------------------------------------------------
                           ORCA GTO INTEGRAL CALCULATION
                           -- RI-GTO INTEGRALS CHOSEN --
------------------------------------------------------------------------------

                         BASIS SET STATISTICS AND STARTUP INFO

Gaussian basis set:
 # of primitive gaussian shells          ...  186
 # of primitive gaussian functions       ...  420
 # of contracted shells                  ...  101
 # of contracted basis functions         ...  259
 Highest angular momentum                ...    3
 Maximum contraction depth               ...    7
Auxiliary gaussian basis set:
 # of primitive gaussian shells          ...  237
 # of primitive gaussian functions       ...  643
 # of contracted shells                  ...  171
 # of contracted aux-basis functions     ...  493
 Highest angular momentum                ...    4
 Maximum contraction depth               ...    7
Ratio of auxiliary to basis functions    ...  1.90
Integral package used                  ... LIBINT
 One Electron integrals                  
   ECP integrals                         ... done
 Ordering auxiliary basis shells         ... done
 Integral threshhold             Thresh  ...  2.500e-11
 Primitive cut-off               TCut    ...  2.500e-12
 Pre-screening matrix                    ... done
 Shell pair data                         ... 
 Ordering of the shell pairs             ... done (   0.001 sec) 4277 of 5151 pairs
 Determination of significant pairs      ... done (   0.000 sec)
 Creation of shell pair data             ... done (   0.002 sec)
 Storage of shell pair data              ... done (   0.001 sec)
 Shell pair data done in (   0.004 sec)
 Computing two index integrals           ... done
 Cholesky decomposition of the V-matrix  ... done


Timings:
 Total evaluation time                   ...   0.637 sec (  0.011 min)
 One electron matrix time                ...   0.317 sec (  0.005 min) = 49.7%
 Schwartz matrix evaluation time         ...   0.216 sec (  0.004 min) = 34.0%
 Two index repulsion integral time       ...   0.009 sec (  0.000 min) =  1.4%
 Cholesky decomposition of V             ...   0.064 sec (  0.001 min) = 10.1%
 Three index repulsion integral time     ...   0.000 sec (  0.000 min) =  0.0%

-------------------------------------------------------------------------------
                                 ORCA SCF
-------------------------------------------------------------------------------

------------
SCF SETTINGS
------------
Hamiltonian:
 Density Functional     Method          .... DFT(GTOs)
 Exchange Functional    Exchange        .... B88
   X-Alpha parameter    XAlpha          ....  0.666667
   Becke's b parameter  XBeta           ....  0.004200
 Correlation Functional Correlation     .... LYP
 LDA part of GGA corr.  LDAOpt          .... VWN-3
 Gradients option       PostSCFGGA      .... off
 Hybrid DFT is turned on
   Fraction HF Exchange ScalHFX         ....  0.530000
   Scaling of DF-GGA-X  ScalDFX         ....  0.470000
   Scaling of DF-GGA-C  ScalDFC         ....  0.730000
   Scaling of DF-LDA-C  ScalLDAC        ....  0.730000
   Perturbative correction              ....  0.270000
 RI-approximation to the Coulomb term is turned on
   Number of auxiliary basis functions  .... 493
   RIJ-COSX (HFX calculated with COS-X)).... on


General Settings:
 Integral files         IntName         .... PbMACl3_mp2_md_4.orca
 Hartree-Fock type      HFTyp           .... RHF
 Total Charge           Charge          ....    0
 Multiplicity           Mult            ....    1
 Number of Electrons    NEL             ....   92
 Basis Dimension        Dim             ....  259
 Nuclear Repulsion      ENuc            ....    589.9688959291 Eh

Convergence Acceleration:
 DIIS                   CNVDIIS         .... on
   Start iteration      DIISMaxIt       ....     0
   Startup error        DIISStart       ....  0.200000
   # of expansion vecs  DIISMaxEq       ....     5
   Bias factor          DIISBfac        ....   1.050
   Max. coefficient     DIISMaxC        ....  10.000
 Newton-Raphson         CNVNR           .... off
 SOSCF                  CNVSOSCF        .... on
   Start iteration      SOSCFMaxIt      ....   150
   Startup grad/error   SOSCFStart      ....  0.001000
 Level Shifting         CNVShift        .... on
   Level shift para.    LevelShift      ....    0.2500
   Turn off err/grad.   ShiftErr        ....    0.0000
 Zerner damping         CNVZerner       .... off
 Static damping         CNVDamp         .... on
   Fraction old density DampFac         ....    0.8500
   Max. Damping (<1)    DampMax         ....    0.9800
   Min. Damping (>=0)   DampMin         ....    0.0000
   Turn off err/grad.   DampErr         ....    0.0300
 Fernandez-Rico         CNVRico         .... off

SCF Procedure:
 Maximum # iterations   MaxIter         ....   125
 SCF integral mode      SCFMode         .... Direct
   Integral package                     .... LIBINT
 Reset frequeny         DirectResetFreq ....    20
 Integral Threshold     Thresh          ....  2.500e-11 Eh
 Primitive CutOff       TCut            ....  2.500e-12 Eh

Convergence Tolerance:
 Convergence Check Mode ConvCheckMode   .... Total+1el-Energy
 Energy Change          TolE            ....  1.000e-08 Eh
 1-El. energy change                    ....  1.000e-05 Eh
 Orbital Gradient       TolG            ....  1.000e-05
 Orbital Rotation angle TolX            ....  1.000e-05
 DIIS Error             TolErr          ....  5.000e-07


Diagonalization of the overlap matrix:
Smallest eigenvalue                        ... 9.790e-04
Time for diagonalization                   ...    0.137 sec
Threshold for overlap eigenvalues          ... 1.000e-08
Number of eigenvalues below threshold      ... 0
Time for construction of square roots      ...    0.006 sec
Total time needed                          ...    0.143 sec

---------------------
INITIAL GUESS: MOREAD
---------------------
Guess MOs are being read from file: previous.gbw
Input geometry compatible with but different from current geometry
Input basis set matches current basis set (good)
MOs were renormalized
MOs were reorthogonalized (Schmidt)
                      ------------------
                      INITIAL GUESS DONE (   0.1 sec)
                      ------------------
-------------------
DFT GRID GENERATION
-------------------

General Integration Accuracy     IntAcc      ...  5.010
Radial Grid Type                 RadialGrid  ... Gauss-Chebyshev
Angular Grid (max. acc.)         AngularGrid ... Lebedev-434
Angular grid pruning method      GridPruning ... 3 (G Style)
Weight generation scheme         WeightScheme... Becke
Basis function cutoff            BFCut       ...    1.0000e-11
Integration weight cutoff        WCut        ...    1.0000e-14
Grids for H and He will be reduced by one unit

# of grid points (after initial pruning)     ... 115882 (   0.0 sec)
# of grid points (after weights+screening)   ... 108776 (   0.2 sec)
nearest neighbour list constructed           ...    0.0 sec
Grid point re-assignment to atoms done       ...    0.0 sec
Grid point division into batches done        ...    0.9 sec
Reduced shell lists constructed in    3.3 sec

Total number of grid points                  ...   108776
Total number of batches                      ...     1705
Average number of points per batch           ...       63
Average number of grid points per atom       ...     9065
Average number of shells per batch           ...    53.28 (52.76%)
Average number of basis functions per batch  ...   140.47 (54.24%)
Average number of large shells per batch     ...    40.15 (75.36%)
Average number of large basis fcns per batch ...   104.09 (74.10%)
Maximum spatial batch extension              ...  32.80, 30.38, 33.39 au
Average spatial batch extension              ...   2.45,  2.35,  2.58 au

Time for grid setup =    3.535 sec

--------------------
COSX GRID GENERATION
--------------------

General Integration Accuracy     IntAcc      ...  3.340
Radial Grid Type                 RadialGrid  ... Gauss-Chebyshev
Angular Grid (max. acc.)         AngularGrid ... Lebedev-50
Angular grid pruning method      GridPruning ... 3 (G Style)
Weight generation scheme         WeightScheme... Becke
Basis function cutoff            BFCut       ...    1.0000e-11
Integration weight cutoff        WCut        ...    1.0000e-14
Grids for H and He will be reduced by one unit

# of grid points (after initial pruning)     ...   6578 (   0.0 sec)
# of grid points (after weights+screening)   ...   6266 (   0.0 sec)
nearest neighbour list constructed           ...    0.0 sec
Grid point re-assignment to atoms done       ...    0.0 sec
Grid point division into batches done        ...    0.0 sec
Reduced shell lists constructed in    0.2 sec

Total number of grid points                  ...     6266
Total number of batches                      ...      103
Average number of points per batch           ...       60
Average number of grid points per atom       ...      522
Average number of shells per batch           ...    64.79 (64.15%)
Average number of basis functions per batch  ...   172.87 (66.74%)
Average number of large shells per batch     ...    50.73 (78.30%)
Average number of large basis fcns per batch ...   133.75 (77.37%)
Maximum spatial batch extension              ...  24.69, 26.89, 33.80 au
Average spatial batch extension              ...   6.19,  6.13,  7.37 au

Overlap Fitting                  UseSFitting ... on
Constructing numerical overlap ... done (      0.1 sec)
Inverting numerical overlap    ... done (      0.0 sec)
Obtaining analytic overlap     ... done (      0.0 sec)
Final contraction and storage  ... done (      0.0 sec)


General Integration Accuracy     IntAcc      ...  3.670
Radial Grid Type                 RadialGrid  ... Gauss-Chebyshev
Angular Grid (max. acc.)         AngularGrid ... Lebedev-50
Angular grid pruning method      GridPruning ... 3 (G Style)
Weight generation scheme         WeightScheme... Becke
Basis function cutoff            BFCut       ...    1.0000e-11
Integration weight cutoff        WCut        ...    1.0000e-14
Grids for H and He will be reduced by one unit

# of grid points (after initial pruning)     ...   8124 (   0.0 sec)
# of grid points (after weights+screening)   ...   7727 (   0.0 sec)
nearest neighbour list constructed           ...    0.0 sec
Grid point re-assignment to atoms done       ...    0.0 sec
Grid point division into batches done        ...    0.0 sec
Reduced shell lists constructed in    0.2 sec

Total number of grid points                  ...     7727
Total number of batches                      ...      128
Average number of points per batch           ...       60
Average number of grid points per atom       ...      644
Average number of shells per batch           ...    63.86 (63.23%)
Average number of basis functions per batch  ...   170.29 (65.75%)
Average number of large shells per batch     ...    50.00 (78.30%)
Average number of large basis fcns per batch ...   131.26 (77.08%)
Maximum spatial batch extension              ...  26.20, 27.54, 35.40 au
Average spatial batch extension              ...   5.57,  5.51,  6.41 au

Overlap Fitting                  UseSFitting ... on
Constructing numerical overlap ... done (      0.1 sec)
Inverting numerical overlap    ... done (      0.0 sec)
Obtaining analytic overlap     ... done (      0.0 sec)
Final contraction and storage  ... done (      0.0 sec)


General Integration Accuracy     IntAcc      ...  4.010
Radial Grid Type                 RadialGrid  ... Gauss-Chebyshev
Angular Grid (max. acc.)         AngularGrid ... Lebedev-110
Angular grid pruning method      GridPruning ... 3 (G Style)
Weight generation scheme         WeightScheme... Becke
Basis function cutoff            BFCut       ...    1.0000e-11
Integration weight cutoff        WCut        ...    1.0000e-14
Grids for H and He will be reduced by one unit

# of grid points (after initial pruning)     ...  15170 (   0.0 sec)
# of grid points (after weights+screening)   ...  14468 (   0.0 sec)
nearest neighbour list constructed           ...    0.0 sec
Grid point re-assignment to atoms done       ...    0.0 sec
Grid point division into batches done        ...    0.0 sec
Reduced shell lists constructed in    0.4 sec

Total number of grid points                  ...    14468
Total number of batches                      ...      231
Average number of points per batch           ...       62
Average number of grid points per atom       ...     1206
Average number of shells per batch           ...    60.30 (59.70%)
Average number of basis functions per batch  ...   160.50 (61.97%)
Average number of large shells per batch     ...    46.41 (76.96%)
Average number of large basis fcns per batch ...   122.02 (76.03%)
Maximum spatial batch extension              ...  31.36, 26.06, 39.26 au
Average spatial batch extension              ...   4.80,  4.58,  5.41 au

Overlap Fitting                  UseSFitting ... on
Constructing numerical overlap ... done (      0.2 sec)
Inverting numerical overlap    ... done (      0.0 sec)
Obtaining analytic overlap     ... done (      0.0 sec)
Final contraction and storage  ... done (      0.0 sec)

Time for X-Grid setup             =    1.352 sec
--------------
SCF ITERATIONS
--------------
ITER       Energy         Delta-E        Max-DP      RMS-DP      [F,P]     Damp
               ***  Starting incremental Fock matrix formation  ***
  0  -1663.9019889487   0.000000000000 0.08410631  0.00197906  0.4970481 0.8500
  1  -1664.6178483421  -0.715859393377 0.08061078  0.00179888  0.4084959 0.8500
                               ***Turning on DIIS***
  2  -1665.2253918044  -0.607543462309 0.06610754  0.00154467  0.3473662 0.8500
  3  -1665.7412822623  -0.515890457941 0.05257515  0.00131117  0.2953725 0.8500
  4  -1666.1868120686  -0.445529806273 0.04354245  0.00113354  0.2511304 0.8500
  5  -1666.5705049571  -0.383692888543 0.03685493  0.00098673  0.2134907 0.8500
  6  -1666.9034854526  -0.332980495505 0.03181187  0.00085520  0.1814811 0.8500
  7  -1667.1932538952  -0.289768442587 0.02761418  0.00073740  0.1542674 0.8500
  8  -1667.4451014472  -0.251847551983 0.02402094  0.00063236  0.1311344 0.8500
  9  -1667.6625673661  -0.217465918952 0.02058701  0.00054014  0.1114702 0.8500
 10  -1667.8496812515  -0.187113885328 0.01746405  0.00046074  0.0947544 0.8500
 11  -1668.0104370352  -0.160755783761 0.01480933  0.00039296  0.0805450 0.8500
 12  -1668.1483978077  -0.137960772424 0.01259912  0.00033517  0.0684661 0.8500
 13  -1668.2666511543  -0.118253346605 0.01074297  0.00028577  0.0581984 0.8500
 14  -1668.3678747752  -0.101223620906 0.00915404  0.00024351  0.0494703 0.8500
 15  -1668.4544197636  -0.086544988419 0.00778748  0.00020743  0.0420509 0.8500
 16  -1668.5283483694  -0.073928605779 0.00662113  0.00017667  0.0357442 0.8500
 17  -1668.5914549943  -0.063106624906 0.00563222  0.00015049  0.0303832 0.8500
 18  -1668.6452911132  -0.053836118955 0.03196097  0.00085456  0.0258262 0.0000
                      *** Initiating the SOSCF procedure ***
                           *** Shutting down DIIS ***
                      *** Re-Reading the Fockian *** 
                      *** Removing any level shift *** 
ITER      Energy       Delta-E        Grad      Rot      Max-DP    RMS-DP
 19  -1668.95381182  -0.3085207028  0.000250  0.000250  0.000738  0.000011
               *** Restarting incremental Fock matrix formation ***
 20  -1668.95399000  -0.0001781888  0.000150  0.000496  0.000508  0.000010
 21  -1668.95399072  -0.0000007158  0.000092  0.000176  0.000242  0.000004
 22  -1668.95399110  -0.0000003750  0.000011  0.000014  0.000038  0.000001
 23  -1668.95399110  -0.0000000076  0.000004  0.000006  0.000012  0.000000
                  ***Gradient check signals convergence***
              ***Rediagonalizing the Fockian in SOSCF/NRSCF***

               *****************************************************
               *                     SUCCESS                       *
               *           SCF CONVERGED AFTER  24 CYCLES          *
               *****************************************************

Old exchange energy                            =    -59.217453519 Eh
New exchange energy                            =    -59.220251126 Eh
Exchange energy change after final integration =     -0.002797607 Eh
Total energy after final integration           =  -1668.956788723 Eh
Final COS-X integration done in                =    19.585 sec

----------------
TOTAL SCF ENERGY
----------------

Total Energy       :        -1668.95678872 Eh          -45414.62306 eV

Components:
Nuclear Repulsion  :          589.96889593 Eh           16053.86982 eV
Electronic Energy  :        -2258.92568465 Eh          -61468.49288 eV

One Electron Energy:        -3550.90383913 Eh          -96625.00578 eV
Two Electron Energy:         1291.97815448 Eh           35156.51291 eV

Virial components:
Potential Energy   :        -3206.93573275 Eh          -87265.15776 eV
Kinetic Energy     :         1537.97894403 Eh           41850.53471 eV
Virial Ratio       :            2.08516231


DFT components:
N(Alpha)           :       45.999996159982 electrons
N(Beta)            :       45.999996159982 electrons
N(Total)           :       91.999992319964 electrons
E(X)               :      -52.592594263125 Eh       
E(C)               :       -2.610763079071 Eh       
E(XC)              :      -55.203357342196 Eh       

---------------
SCF CONVERGENCE
---------------

  Last Energy change         ...   -1.2619e-08  Tolerance :   1.0000e-08
  Last MAX-Density change    ...    5.3735e-14  Tolerance :   1.0000e-07
  Last RMS-Density change    ...    3.2763e-16  Tolerance :   5.0000e-09
  Last Orbital Gradient      ...    1.2514e-06  Tolerance :   1.0000e-05
  Last Orbital Rotation      ...    3.0937e-06  Tolerance :   1.0000e-05

             **** THE GBW FILE WAS UPDATED (PbMACl3_mp2_md_4.orca.gbw) ****
             **** DENSITY FILE WAS UPDATED (PbMACl3_mp2_md_4.orca.scfp.tmp) ****
             **** ENERGY FILE WAS UPDATED (PbMACl3_mp2_md_4.orca.en.tmp) ****
----------------
ORBITAL ENERGIES
----------------

  NO   OCC          E(Eh)            E(eV) 
   0   2.0000    -102.875642     -2799.3885 
   1   2.0000    -102.838905     -2798.3889 
   2   2.0000    -102.817791     -2797.8143 
   3   2.0000     -15.003469      -408.2652 
   4   2.0000     -10.730753      -291.9986 
   5   2.0000      -9.888074      -269.0682 
   6   2.0000      -9.846117      -267.9265 
   7   2.0000      -9.824644      -267.3422 
   8   2.0000      -7.524506      -204.7522 
   9   2.0000      -7.523251      -204.7181 
  10   2.0000      -7.522719      -204.7036 
  11   2.0000      -7.482970      -203.6220 
  12   2.0000      -7.481535      -203.5829 
  13   2.0000      -7.481304      -203.5766 
  14   2.0000      -7.461852      -203.0473 
  15   2.0000      -7.459845      -202.9927 
  16   2.0000      -7.459714      -202.9891 
  17   2.0000      -5.779263      -157.2618 
  18   2.0000      -3.551728       -96.6474 
  19   2.0000      -3.549823       -96.5956 
  20   2.0000      -3.548498       -96.5595 
  21   2.0000      -1.174288       -31.9540 
  22   2.0000      -0.975207       -26.5367 
  23   2.0000      -0.949137       -25.8273 
  24   2.0000      -0.945830       -25.7374 
  25   2.0000      -0.940971       -25.6051 
  26   2.0000      -0.938967       -25.5506 
  27   2.0000      -0.904042       -24.6002 
  28   2.0000      -0.876634       -23.8544 
  29   2.0000      -0.854160       -23.2429 
  30   2.0000      -0.830669       -22.6036 
  31   2.0000      -0.729414       -19.8484 
  32   2.0000      -0.692937       -18.8558 
  33   2.0000      -0.599792       -16.3212 
  34   2.0000      -0.564134       -15.3509 
  35   2.0000      -0.550715       -14.9857 
  36   2.0000      -0.531867       -14.4728 
  37   2.0000      -0.403560       -10.9814 
  38   2.0000      -0.392927       -10.6921 
  39   2.0000      -0.390329       -10.6214 
  40   2.0000      -0.355022        -9.6606 
  41   2.0000      -0.340304        -9.2601 
  42   2.0000      -0.337009        -9.1705 
  43   2.0000      -0.313533        -8.5317 
  44   2.0000      -0.310413        -8.4468 
  45   2.0000      -0.252350        -6.8668 
  46   0.0000      -0.011819        -0.3216 
  47   0.0000       0.000364         0.0099 
  48   0.0000       0.038803         1.0559 
  49   0.0000       0.047458         1.2914 
  50   0.0000       0.065528         1.7831 
  51   0.0000       0.076035         2.0690 
  52   0.0000       0.084500         2.2994 
  53   0.0000       0.106515         2.8984 
  54   0.0000       0.116584         3.1724 
  55   0.0000       0.130808         3.5595 
  56   0.0000       0.143860         3.9146 
  57   0.0000       0.155297         4.2259 
  58   0.0000       0.162059         4.4099 
  59   0.0000       0.195381         5.3166 
  60   0.0000       0.227514         6.1910 
  61   0.0000       0.233849         6.3634 
  62   0.0000       0.252382         6.8677 
  63   0.0000       0.257895         7.0177 
  64   0.0000       0.272634         7.4188 
  65   0.0000       0.291273         7.9259 
  66   0.0000       0.297266         8.0890 
  67   0.0000       0.317504         8.6397 
  68   0.0000       0.338535         9.2120 
  69   0.0000       0.347608         9.4589 
  70   0.0000       0.391659        10.6576 
  71   0.0000       0.393462        10.7066 
  72   0.0000       0.403966        10.9925 
  73   0.0000       0.426393        11.6028 
  74   0.0000       0.439557        11.9610 
  75   0.0000       0.454467        12.3667 
  76   0.0000       0.458641        12.4803 
  77   0.0000       0.461790        12.5659 
  78   0.0000       0.467946        12.7335 
  79   0.0000       0.473286        12.8788 
  80   0.0000       0.479914        13.0591 
  81   0.0000       0.484626        13.1874 
  82   0.0000       0.492462        13.4006 
  83   0.0000       0.504435        13.7264 
  84   0.0000       0.513548        13.9744 
  85   0.0000       0.524085        14.2611 
  86   0.0000       0.527249        14.3472 
  87   0.0000       0.536314        14.5939 
  88   0.0000       0.548912        14.9367 
  89   0.0000       0.557578        15.1725 
  90   0.0000       0.576387        15.6843 
  91   0.0000       0.584592        15.9076 
  92   0.0000       0.595890        16.2150 
  93   0.0000       0.598125        16.2758 
  94   0.0000       0.611867        16.6497 
  95   0.0000       0.623795        16.9743 
  96   0.0000       0.647048        17.6071 
  97   0.0000       0.651944        17.7403 
  98   0.0000       0.664819        18.0906 
  99   0.0000       0.686857        18.6903 
 100   0.0000       0.714522        19.4431 
 101   0.0000       0.731397        19.9023 
 102   0.0000       0.756658        20.5897 
 103   0.0000       0.770117        20.9560 
 104   0.0000       0.789100        21.4725 
 105   0.0000       0.834157        22.6986 
 106   0.0000       0.864545        23.5255 
 107   0.0000       0.875320        23.8187 
 108   0.0000       0.884427        24.0665 
 109   0.0000       0.895303        24.3624 
 110   0.0000       0.909468        24.7479 
 111   0.0000       0.921895        25.0860 
 112   0.0000       0.936465        25.4825 
 113   0.0000       0.945208        25.7204 
 114   0.0000       0.969938        26.3934 
 115   0.0000       0.973646        26.4943 
 116   0.0000       1.016449        27.6590 
 117   0.0000       1.025378        27.9019 
 118   0.0000       1.079418        29.3724 
 119   0.0000       1.096125        29.8271 
 120   0.0000       1.110589        30.2207 
 121   0.0000       1.118282        30.4300 
 122   0.0000       1.135268        30.8922 
 123   0.0000       1.189018        32.3548 
 124   0.0000       1.226681        33.3797 
 125   0.0000       1.241656        33.7872 
 126   0.0000       1.296421        35.2774 
 127   0.0000       1.316946        35.8359 
 128   0.0000       1.333291        36.2807 
 129   0.0000       1.368307        37.2335 
 130   0.0000       1.425852        38.7994 
 131   0.0000       1.501512        40.8582 
 132   0.0000       1.516910        41.2772 
 133   0.0000       1.564713        42.5780 
 134   0.0000       1.604660        43.6650 
 135   0.0000       1.643209        44.7140 
 136   0.0000       1.691848        46.0375 
 137   0.0000       1.730590        47.0917 
 138   0.0000       1.813323        49.3430 
 139   0.0000       1.837690        50.0061 
 140   0.0000       1.862340        50.6768 
 141   0.0000       1.883841        51.2619 
 142   0.0000       1.921247        52.2798 
 143   0.0000       1.945996        52.9532 
 144   0.0000       1.951257        53.0964 
 145   0.0000       1.963939        53.4415 
 146   0.0000       1.969223        53.5853 
 147   0.0000       1.978241        53.8307 
 148   0.0000       1.985752        54.0351 
 149   0.0000       1.994944        54.2852 
 150   0.0000       1.997769        54.3620 
 151   0.0000       2.016861        54.8816 
 152   0.0000       2.035198        55.3805 
 153   0.0000       2.051251        55.8174 
 154   0.0000       2.056369        55.9566 
 155   0.0000       2.088049        56.8187 
 156   0.0000       2.103231        57.2318 
 157   0.0000       2.105724        57.2997 
 158   0.0000       2.125055        57.8257 
 159   0.0000       2.130350        57.9698 
 160   0.0000       2.145306        58.3767 
 161   0.0000       2.148049        58.4514 
 162   0.0000       2.164105        58.8883 
 163   0.0000       2.167015        58.9675 
 164   0.0000       2.176958        59.2380 
 165   0.0000       2.188025        59.5392 
 166   0.0000       2.199297        59.8459 
 167   0.0000       2.235249        60.8242 
 168   0.0000       2.244393        61.0730 
 169   0.0000       2.261807        61.5469 
 170   0.0000       2.267579        61.7040 
 171   0.0000       2.273303        61.8597 
 172   0.0000       2.277525        61.9746 
 173   0.0000       2.284759        62.1715 
 174   0.0000       2.290319        62.3227 
 175   0.0000       2.292718        62.3880 
 176   0.0000       2.296775        62.4984 
 177   0.0000       2.298701        62.5508 
 178   0.0000       2.309766        62.8519 
 179   0.0000       2.315324        63.0032 
 180   0.0000       2.348288        63.9002 
 181   0.0000       2.353480        64.0414 
 182   0.0000       2.355383        64.0932 
 183   0.0000       2.376186        64.6593 
 184   0.0000       2.388852        65.0040 
 185   0.0000       2.405544        65.4582 
 186   0.0000       2.420413        65.8628 
 187   0.0000       2.421449        65.8910 
 188   0.0000       2.432500        66.1917 
 189   0.0000       2.442010        66.4505 
 190   0.0000       2.449202        66.6462 
 191   0.0000       2.456091        66.8336 
 192   0.0000       2.468502        67.1713 
 193   0.0000       2.473234        67.3001 
 194   0.0000       2.483146        67.5698 
 195   0.0000       2.501656        68.0735 
 196   0.0000       2.541491        69.1575 
 197   0.0000       2.560059        69.6628 
 198   0.0000       2.581493        70.2460 
 199   0.0000       2.601225        70.7829 
 200   0.0000       2.615710        71.1771 
 201   0.0000       2.653717        72.2113 
 202   0.0000       2.671151        72.6857 
 203   0.0000       2.708036        73.6894 
 204   0.0000       2.720460        74.0275 
 205   0.0000       2.737551        74.4925 
 206   0.0000       2.797738        76.1303 
 207   0.0000       2.829839        77.0038 
 208   0.0000       2.851597        77.5959 
 209   0.0000       2.877134        78.2908 
 210   0.0000       2.905633        79.0663 
 211   0.0000       2.954447        80.3946 
 212   0.0000       3.100425        84.3668 
 213   0.0000       3.149879        85.7126 
 214   0.0000       3.169936        86.2583 
 215   0.0000       3.239290        88.1456 
 216   0.0000       3.276872        89.1682 
 217   0.0000       3.451613        93.9232 
 218   0.0000       3.508210        95.4633 
 219   0.0000       3.528215        96.0076 
 220   0.0000       3.531153        96.0875 
 221   0.0000       3.589098        97.6643 
 222   0.0000       3.666266        99.7642 
 223   0.0000       3.827936       104.1634 
 224   0.0000       3.961138       107.7880 
 225   0.0000       4.120985       112.1377 
 226   0.0000       4.163634       113.2982 
 227   0.0000       4.454909       121.2242 
 228   0.0000       4.507479       122.6547 
 229   0.0000       4.711757       128.2134 
 230   0.0000       4.768780       129.7651 
 231   0.0000       4.856445       132.1506 
 232   0.0000       4.906752       133.5195 
 233   0.0000       5.010642       136.3465 
 234   0.0000       5.061279       137.7244 
 235   0.0000       5.099704       138.7700 
 236   0.0000       5.222315       142.1064 
 237   0.0000       5.402530       147.0103 
 238   0.0000       5.586312       152.0113 
 239   0.0000       5.842753       158.9894 
 240   0.0000      11.062409       301.0234 
 241   0.0000      11.076683       301.4119 
 242   0.0000      11.087702       301.7117 
 243   0.0000      11.096292       301.9455 
 244   0.0000      11.103240       302.1345 
 245   0.0000      11.148938       303.3780 
 246   0.0000      11.192325       304.5586 
 247   0.0000      11.216173       305.2076 
 248   0.0000      11.254060       306.2385 
 249   0.0000      22.522798       612.8765 
 250   0.0000      25.157733       684.5767 
 251   0.0000      25.202058       685.7829 
 252   0.0000      25.548690       695.2152 
 253   0.0000      32.271340       878.1478 
 254   0.0000      35.594630       968.5791 
 255   0.0000      35.770886       973.3753 
 256   0.0000      35.849929       975.5262 
 257   0.0000      35.937917       977.9204 
 258   0.0000     123.645902      3364.5760 

                    ********************************
                    * MULLIKEN POPULATION ANALYSIS *
                    ********************************

-----------------------
MULLIKEN ATOMIC CHARGES
-----------------------
   0 C :   -0.250870
   1 N :   -0.305948
   2 H :    0.313106
   3 H :    0.287155
   4 H :    0.291366
   5 H :    0.162647
   6 H :    0.196151
   7 H :    0.148969
   8 Pb:    0.803368
   9 Cl:   -0.575585
  10 Cl:   -0.534567
  11 Cl:   -0.535793
Sum of atomic charges:   -0.0000000

--------------------------------
MULLIKEN REDUCED ORBITAL CHARGES
--------------------------------
  0 C s       :     3.290193  s :     3.290193
      pz      :     1.096971  p :     2.886651
      px      :     1.096314
      py      :     0.693366
      dz2     :     0.010406  d :     0.068279
      dxz     :     0.012804
      dyz     :     0.013596
      dx2y2   :     0.019730
      dxy     :     0.011743
      f0      :     0.000752  f :     0.005747
      f+1     :     0.000374
      f-1     :     0.000789
      f+2     :     0.001429
      f-2     :     0.000257
      f+3     :     0.000907
      f-3     :     0.001240
  1 N s       :     3.439363  s :     3.439363
      pz      :     1.284613  p :     3.815898
      px      :     1.270237
      py      :     1.261049
      dz2     :     0.004620  d :     0.048355
      dxz     :     0.008233
      dyz     :     0.013586
      dx2y2   :     0.012138
      dxy     :     0.009777
      f0      :     0.000277  f :     0.002332
      f+1     :     0.000085
      f-1     :     0.000411
      f+2     :     0.000654
      f-2     :     0.000162
      f+3     :     0.000403
      f-3     :     0.000338
  2 H s       :     0.641747  s :     0.641747
      pz      :     0.010550  p :     0.045147
      px      :     0.027546
      py      :     0.007051
  3 H s       :     0.679848  s :     0.679848
      pz      :     0.009290  p :     0.032996
      px      :     0.016214
      py      :     0.007493
  4 H s       :     0.672224  s :     0.672224
      pz      :     0.018492  p :     0.036410
      px      :     0.006961
      py      :     0.010957
  5 H s       :     0.816001  s :     0.816001
      pz      :     0.012129  p :     0.021352
      px      :     0.004350
      py      :     0.004873
  6 H s       :     0.779256  s :     0.779256
      pz      :     0.008441  p :     0.024593
      px      :     0.012666
      py      :     0.003486
  7 H s       :     0.829449  s :     0.829449
      pz      :     0.006190  p :     0.021582
      px      :     0.010958
      py      :     0.004434
  8 Pbs       :     3.938308  s :     3.938308
      pz      :     2.399775  p :     7.028035
      px      :     2.326827
      py      :     2.301433
      dz2     :     2.031000  d :    10.157904
      dxz     :     2.031043
      dyz     :     2.025256
      dx2y2   :     2.040401
      dxy     :     2.030204
      f0      :     0.006099  f :     0.072385
      f+1     :     0.005617
      f-1     :     0.008776
      f+2     :     0.011572
      f-2     :     0.009325
      f+3     :     0.013825
      f-3     :     0.017170
  9 Cls       :     5.955447  s :     5.955447
      pz      :     3.920266  p :    11.602607
      px      :     3.800669
      py      :     3.881672
      dz2     :     0.002711  d :     0.016832
      dxz     :     0.002189
      dyz     :     0.001211
      dx2y2   :     0.005796
      dxy     :     0.004926
      f0      :     0.000068  f :     0.000698
      f+1     :     0.000137
      f-1     :     0.000039
      f+2     :     0.000044
      f-2     :     0.000056
      f+3     :     0.000126
      f-3     :     0.000228
 10 Cls       :     5.953788  s :     5.953788
      pz      :     3.891894  p :    11.544812
      px      :     3.906089
      py      :     3.746829
      dz2     :     0.003470  d :     0.034227
      dxz     :     0.003663
      dyz     :     0.007697
      dx2y2   :     0.011928
      dxy     :     0.007468
      f0      :     0.000229  f :     0.001741
      f+1     :     0.000070
      f-1     :     0.000218
      f+2     :     0.000324
      f-2     :     0.000089
      f+3     :     0.000361
      f-3     :     0.000451
 11 Cls       :     5.952516  s :     5.952516
      pz      :     3.889651  p :    11.565304
      px      :     3.835900
      py      :     3.839754
      dz2     :     0.002004  d :     0.017102
      dxz     :     0.003858
      dyz     :     0.004481
      dx2y2   :     0.001950
      dxy     :     0.004809
      f0      :     0.000094  f :     0.000870
      f+1     :     0.000082
      f-1     :     0.000097
      f+2     :     0.000084
      f-2     :     0.000284
      f+3     :     0.000119
      f-3     :     0.000110


                     *******************************
                     * LOEWDIN POPULATION ANALYSIS *
                     *******************************

----------------------
LOEWDIN ATOMIC CHARGES
----------------------
   0 C :   -0.292333
   1 N :    0.077271
   2 H :    0.172182
   3 H :    0.199941
   4 H :    0.182794
   5 H :    0.129606
   6 H :    0.123132
   7 H :    0.116027
   8 Pb:   -0.150633
   9 Cl:   -0.277471
  10 Cl:   -0.050209
  11 Cl:   -0.230307

-------------------------------
LOEWDIN REDUCED ORBITAL CHARGES
-------------------------------
  0 C s       :     2.887958  s :     2.887958
      pz      :     1.107671  p :     3.081359
      px      :     1.131439
      py      :     0.842249
      dz2     :     0.038849  d :     0.289785
      dxz     :     0.048927
      dyz     :     0.064762
      dx2y2   :     0.082929
      dxy     :     0.054318
      f0      :     0.004457  f :     0.033230
      f+1     :     0.001551
      f-1     :     0.005791
      f+2     :     0.005659
      f-2     :     0.001634
      f+3     :     0.006560
      f-3     :     0.007578
  1 N s       :     3.014833  s :     3.014833
      pz      :     1.239214  p :     3.741194
      px      :     1.240710
      py      :     1.261270
      dz2     :     0.015795  d :     0.157569
      dxz     :     0.027816
      dyz     :     0.040707
      dx2y2   :     0.041934
      dxy     :     0.031316
      f0      :     0.001264  f :     0.009133
      f+1     :     0.000372
      f-1     :     0.001945
      f+2     :     0.001493
      f-2     :     0.000879
      f+3     :     0.002129
      f-3     :     0.001052
  2 H s       :     0.689922  s :     0.689922
      pz      :     0.029970  p :     0.137896
      px      :     0.087774
      py      :     0.020151
  3 H s       :     0.702100  s :     0.702100
      pz      :     0.026772  p :     0.097960
      px      :     0.050482
      py      :     0.020705
  4 H s       :     0.706133  s :     0.706133
      pz      :     0.057680  p :     0.111073
      px      :     0.021766
      py      :     0.031628
  5 H s       :     0.809724  s :     0.809724
      pz      :     0.034234  p :     0.060670
      px      :     0.013372
      py      :     0.013064
  6 H s       :     0.806291  s :     0.806291
      pz      :     0.024585  p :     0.070577
      px      :     0.036349
      py      :     0.009643
  7 H s       :     0.820424  s :     0.820424
      pz      :     0.018336  p :     0.063549
      px      :     0.032572
      py      :     0.012641
  8 Pbs       :     3.693286  s :     3.693286
      pz      :     2.520806  p :     7.524487
      px      :     2.489179
      py      :     2.514502
      dz2     :     2.117135  d :    10.702915
      dxz     :     2.105636
      dyz     :     2.126346
      dx2y2   :     2.192166
      dxy     :     2.161634
      f0      :     0.019875  f :     0.229944
      f+1     :     0.016759
      f-1     :     0.025434
      f+2     :     0.034271
      f-2     :     0.030027
      f+3     :     0.038806
      f-3     :     0.064772
  9 Cls       :     5.769498  s :     5.769498
      pz      :     3.873623  p :    11.472580
      px      :     3.763143
      py      :     3.835814
      dz2     :     0.007040  d :     0.033648
      dxz     :     0.002010
      dyz     :     0.001024
      dx2y2   :     0.012451
      dxy     :     0.011122
      f0      :     0.000063  f :     0.001746
      f+1     :     0.000462
      f-1     :     0.000090
      f+2     :     0.000050
      f-2     :     0.000056
      f+3     :     0.000242
      f-3     :     0.000782
 10 Cls       :     5.664621  s :     5.664621
      pz      :     3.826064  p :    11.305002
      px      :     3.783503
      py      :     3.695434
      dz2     :     0.006982  d :     0.075738
      dxz     :     0.005363
      dyz     :     0.020197
      dx2y2   :     0.033091
      dxy     :     0.010104
      f0      :     0.000663  f :     0.004848
      f+1     :     0.000139
      f-1     :     0.000383
      f+2     :     0.001265
      f-2     :     0.000179
      f+3     :     0.000707
      f-3     :     0.001514
 11 Cls       :     5.759212  s :     5.759212
      pz      :     3.844357  p :    11.437434
      px      :     3.793649
      py      :     3.799428
      dz2     :     0.001759  d :     0.031820
      dxz     :     0.008877
      dyz     :     0.010826
      dx2y2   :     0.001647
      dxy     :     0.008710
      f0      :     0.000218  f :     0.001842
      f+1     :     0.000154
      f-1     :     0.000184
      f+2     :     0.000086
      f-2     :     0.000836
      f+3     :     0.000210
      f-3     :     0.000152


                      *****************************
                      * MAYER POPULATION ANALYSIS *
                      *****************************

  NA   - Mulliken gross atomic population
  ZA   - Total nuclear charge
  QA   - Mulliken gross atomic charge
  VA   - Mayer's total valence
  BVA  - Mayer's bonded valence
  FA   - Mayer's free valence

  ATOM       NA         ZA         QA         VA         BVA        FA
  0 C      6.2509     6.0000    -0.2509     3.7506     3.7506     0.0000
  1 N      7.3059     7.0000    -0.3059     3.4194     3.4194    -0.0000
  2 H      0.6869     1.0000     0.3131     0.9488     0.9488     0.0000
  3 H      0.7128     1.0000     0.2872     0.9216     0.9216    -0.0000
  4 H      0.7086     1.0000     0.2914     0.9557     0.9557    -0.0000
  5 H      0.8374     1.0000     0.1626     0.9679     0.9679     0.0000
  6 H      0.8038     1.0000     0.1962     0.9745     0.9745     0.0000
  7 H      0.8510     1.0000     0.1490     0.9622     0.9622     0.0000
  8 Pb    21.1966    22.0000     0.8034     1.9701     1.9701    -0.0000
  9 Cl    17.5756    17.0000    -0.5756     0.7229     0.7229     0.0000
 10 Cl    17.5346    17.0000    -0.5346     0.7674     0.7674    -0.0000
 11 Cl    17.5358    17.0000    -0.5358     0.7966     0.7966    -0.0000

  Mayer bond orders larger than 0.1
B(  0-C ,  1-N ) :   0.8725 B(  0-C ,  5-H ) :   0.9678 B(  0-C ,  6-H ) :   0.9485 
B(  0-C ,  7-H ) :   0.9563 B(  1-N ,  2-H ) :   0.7991 B(  1-N ,  3-H ) :   0.8868 
B(  1-N ,  4-H ) :   0.8737 B(  2-H , 10-Cl) :   0.1442 B(  8-Pb,  9-Cl) :   0.6182 
B(  8-Pb, 10-Cl) :   0.5633 B(  8-Pb, 11-Cl) :   0.7766 

-------
TIMINGS
-------

Total SCF time: 0 days 0 hours 5 min 17 sec 

Total time                  ....     317.704 sec
Sum of individual times     ....     297.173 sec  ( 93.5%)

Fock matrix formation       ....     291.225 sec  ( 91.7%)
  Coulomb formation         ....     225.325 sec  ( 77.4% of F)
  Split-RI-J                ....      19.407 sec  (  6.7% of F)
  Chain of spheres X        ....     225.414 sec  ( 77.4% of F)
  COS-X 1 center corr.      ....       0.000 sec  (  0.0% of F)
  XC integration            ....      65.889 sec  ( 22.6% of F)
    Basis function eval.    ....      30.474 sec  ( 46.3% of XC)
    Density eval.           ....      12.952 sec  ( 19.7% of XC)
    XC-Functional eval.     ....       3.461 sec  (  5.3% of XC)
    XC-Potential eval.      ....      17.887 sec  ( 27.1% of XC)
Diagonalization             ....       0.612 sec  (  0.2%)
Density matrix formation    ....       0.041 sec  (  0.0%)
Population analysis         ....       0.069 sec  (  0.0%)
Initial guess               ....       0.115 sec  (  0.0%)
Orbital Transformation      ....       0.000 sec  (  0.0%)
Orbital Orthonormalization  ....       0.112 sec  (  0.0%)
DIIS solution               ....       0.155 sec  (  0.0%)
SOSCF solution              ....       0.069 sec  (  0.0%)
Grid generation             ....       4.886 sec  (  1.5%)

------------------------------------------------------------------------------
                              ORCA MP2 CALCULATION
------------------------------------------------------------------------------


----------------------
RI-MP2 ENERGY+GRADIENT
----------------------
Dimension of the basis                    ...  259
Memory devoted to MP2                     ... 1000 MB   
Data format for buffers                   ... DOUBLE
Compression type for matrix containers    ... UNCOMPRESSED
Overall scaling of the MP2 energy         ...   2.700e-01 Eh
Calculating two index integrals           ... done (    0.012 sec)
Cholesky decomposition of the V-matrix    ... done
Cholesky decomposition of V**-1           ... done (    0.026 sec)

-----------------
RI-TRANSFORMATION (AUX index driven)
-----------------

Dimension of the orbital-basis         ... 259
Dimension of the aux-basis             ... 493
Transformation of internal MOs         ...    0-  45
Transformation of internal/external MOs...    0-  45 to   46- 258
Number Format for Storage              ... Double (8 Byte)
Integral mode                          ... Direct

First Phase: integral generation and transformation of MO indices
  Aux angular momentum 0               ... done (    0.529 sec)
  Aux angular momentum 1               ... done (    0.413 sec)
  Aux angular momentum 2               ... done (    0.471 sec)
  Aux angular momentum 3               ... done (    0.260 sec)
  Aux angular momentum 4               ... done (    0.224 sec)
Closing buffer VIJ ( 0.00 GB; CompressionRatio= 1.95)
Closing buffer VIA ( 0.04 GB; CompressionRatio= 1.00)
  Phase 1 completed in     1.999 sec
Second Phase: sorting and transformation of aux index

IJ-Transformation
Memory available                       ... 990 MB 
Max. # MO pairs treated in a batch     ... 46    
# of internal orbitals                 ... 46
# batches for internal orbitals        ... 1
Closing buffer IJV ( 0.00 GB; CompressionRatio= 1.00)
(ij|v) transformation done in     0.103 sec

IA-Transformation
Memory available                       ... 990 MB 
Max. # MO pairs treated in a batch     ... 46    
# of internal orbitals                 ... 46
# batches for internal orbitals        ... 1
Closing buffer IAV ( 0.04 GB; CompressionRatio= 1.00)
(ia|v) transformation done in     0.380 sec

  Phase 2 completed in     0.505 sec
RI-Integral transformation completed in     2.505 sec
Opening buffers                              ... done

Starting loop over batches of integrals:

Operator 0  - window                       ... (  0- 45)x( 46-258)
Operator 0  - Memory available             ...  1000 MB
Operator 0  - Memory needed per MO         ...   1.6 MB
Operator 0  - Number of orbitals per batch ... 46
Operator 0  - Number of batches            ... 1

OPERATOR  0   PASS   0:  MOs     0 ...   45
  Reading integrals       ... ok
  Internal MO   2
  Internal MO   5
  Internal MO   8
  Internal MO  11
  Internal MO  14
  Internal MO  17
  Internal MO  20
  Internal MO  23
  Internal MO  26
  Internal MO  29
  Internal MO  32
  Internal MO  35
  Internal MO  38
  Internal MO  41
  Internal MO  44
Closing buffer GIPV ( 0.04 GB; CompressionRatio= 1.00)
Time spent in pair loops =    45.144 sec

-----------------------------------------------
 RI-MP2 CORRELATION ENERGY:     -0.582306426 Eh
-----------------------------------------------


---------------------
MP2 DENSITY FORMATION
---------------------

Completing the external part of the density      ... done
Storing the unrelaxed density                    ... done

Calculating the xc-kernel                        ... done
Calculating G(D)                                 ... done
Completing the Lagrangian                        ... done
Solving the Z-vector equations                   ... 

------------------------------------------------------------------------------
                           ORCA CP-SCF CALCULATION
------------------------------------------------------------------------------

Input orbitals are from        ... PbMACl3_mp2_md_4.orca.gbw
Input Perturbation             ... PbMACl3_mp2_md_4.orca.pin.tmp
Wavefunction output            ... PbMACl3_mp2_md_4.orca.pout.tmp
Perturbation mode              ... Real perturbation
Solver                         ... DIIS
   MaxDIIS                     ... 20
   Levelshift                  ...    3.000e-01 Eh
Max. number of iterations      ... 128
Convergence tolerance          ... 1.000e-08
Integral handling              ... Direct
COSX GridX                     ... 1
Number of perturbations        ... 1
Number of operators            ... 1
Orbital ranges used for CP-SCF:
 Operator 0:  Orbitals   0... 45  to  46...258
DFT calculation                         ... on
Exchange functional (SCF)               ... B88
Exchange functional (CP-SCF)            ... B88
   X-Alpha parameter    XAlpha (SCF)    ...  0.666667
   X-Alpha parameter    XAlpha (CP-SCF) ...  0.666667
   Becke's b parameter  XBeta (SCF)     ...  0.004200
   Becke's b parameter  XBeta (CP-SCF)  ...  0.004200
Correlation functional (SCF)            ... LYP
Correlation functional (CP-SCF)         ... LYP
 LDA part of GGA corr.  LDAOpt (SCF)    ... VWN-3
 LDA part of GGA corr.  LDAOpt (CP-SCF) ... VWN-3
Hybrid DFT                              ... on
   Exchange mixing (SCF)                ...  0.530
   Exchange mixing (CP-SCF)             ...  0.530
   GGA exch. scaling(SCF)               ...  0.470
   GGA exch. scaling (CP-SCF)           ...  0.470
   GGA corr. scaling (SCF)              ...  0.730
   GGA corr. scaling (CP-SCF)           ...  0.730
The RIJCOSX approximation is active
Variables per vector in CP-SCF ... 9798
Number of vectors sought       ... 1
Calculating the xc-kernel      ... done

Solving the CP-SCF equations by a DIIS algorithm

-----------------
CP-SCF ITERATIONS
-----------------
  Iteration   0: MaxR=  0.087130375
  Iteration   1: MaxR=  0.039244022
  Iteration   2: MaxR=  0.012445610
  Iteration   3: MaxR=  0.005590727
  Iteration   4: MaxR=  0.002968913
  Iteration   5: MaxR=  0.001304746
  Iteration   6: MaxR=  0.000534682
  Iteration   7: MaxR=  0.000174227
  Iteration   8: MaxR=  0.000072628
  Iteration   9: MaxR=  0.000023126
  Iteration  10: MaxR=  0.000009750
  Iteration  11: MaxR=  0.000003639
  Iteration  12: MaxR=  0.000001585
  Iteration  13: MaxR=  0.000000618
  Iteration  14: MaxR=  0.000000238
  Iteration  15: MaxR=  0.000000088
  Iteration  16: MaxR=  0.000000028
  Iteration  17: MaxR=  0.000000012
  Iteration  18: MaxR=  0.000000005
                              *** THE CP-SCF HAS CONVERGED *** 
done
Finalizing the relaxed density                   ... done
Transforming P to the AO basis                   ... done
Storing the relaxed density                      ... done

------------------------------------
ENERGY WEIGHTED DENSITY FINALIZATION
------------------------------------

Gathering the parts of the W-matrix              ... done
Forming the Z-density                            ... done
Transforming Z to the AO basis                   ... done
Calculating G(Z)                                 ... done
Finalizing the W-matrix                          ... done
Transforming W to the AO basis and storing       ... done
Entering the RIJONX and RIJCOSX sections
Starting the three-index derivative integrals:
Operator 0  - Memory available             ...  1000 MB
Operator 0  - Memory needed per MO         ...   1.0 MB
Operator 0  - Number of orbitals per batch ... 46
Operator 0  - Number of batches            ... 1

OPERATOR  0   PASS   0:  MOs     0 ...   45

----------------------------------
MP2 DERIVATIVE INTEGRAL GENERATION
----------------------------------


Input Correlated Electron Density   ... PbMACl3_mp2_md_4.orca.pmp2re
Input Energy Weighted Density       ... PbMACl3_mp2_md_4.orca.wmp2.tmp
Input SCF Electron Density          ... PbMACl3_mp2_md_4.orca.scfp.tmp

One-Electron Terms    ...
  ECP gradient                                           ... One-Electron Terms done

-----------------------------------------------------------
MP2 COSX Grid Generation
-----------------------------------------------------------

General Integration Accuracy     IntAcc      ...  4.340
Radial Grid Type                 RadialGrid  ... Gauss-Chebyshev
Angular Grid (max. acc.)         AngularGrid ... Lebedev-302
Angular grid pruning method      GridPruning ... 3 (G Style)
Weight generation scheme         WeightScheme... Becke
Basis function cutoff            BFCut       ...    1.0000e-11
Integration weight cutoff        WCut        ...    1.0000e-14
Grids for H and He will be reduced by one unit

# of grid points (after initial pruning)     ...  57718 (   0.0 sec)
# of grid points (after weights+screening)   ...  54407 (   0.1 sec)
nearest neighbour list constructed           ...    0.0 sec
Grid point re-assignment to atoms done       ...    0.0 sec
Grid point division into batches done        ...    0.2 sec
Reduced shell lists constructed in    1.4 sec

Total number of grid points                  ...    54407
Total number of batches                      ...      855
Average number of points per batch           ...       63
Average number of grid points per atom       ...     4534
Average number of shells per batch           ...    54.84 (54.30%)
Average number of basis functions per batch  ...   145.09 (56.02%)
Average number of large shells per batch     ...    41.47 (75.62%)
Average number of large basis fcns per batch ...   108.05 (74.47%)
Maximum spatial batch extension              ...  31.96, 28.85, 43.71 au
Average spatial batch extension              ...   3.05,  2.99,  3.27 au

Overlap Fitting                  UseSFitting ... on
Two electron COSX terms .... 
Integration Timings:
Total Time                  =    84.1 sec
Basis fcn evaluation        =     0.6 sec
Density evaluation          =     1.1 sec
Integral evaluation         =    80.3 sec
K(P) evaluation             =     0.8 sec
                          .... COSX two electron terms done
COSX two-electron contribution to the gradient
     0:     0.006533    -0.026599     0.005272
     1:    -0.071829     0.085353     0.021323
     2:    -0.140694    -0.054579     0.119315
     3:     0.175219    -0.064285     0.094155
     4:     0.048577    -0.079594    -0.190286
     5:    -0.041249     0.061338     0.155565
     6:    -0.128717     0.017737    -0.115203
     7:     0.131706     0.056195    -0.083829
     8:     0.005121     0.030643    -0.033396
     9:     0.051102    -0.032262    -0.014300
    10:     0.013608     0.059009     0.000985
    11:    -0.049985    -0.053339     0.040537
Exchange-correlation gradient    ... done
Dispersion correction            ... 
Entering the calculation of the dispersion correction...

Checking the input atom types...

Done
done

                *********************************************
                * UNRELAXED MP2 DENSITY POPULATION ANALYSIS *
                *********************************************

------------------------------------------------------------------------------
                           ORCA POPULATION ANALYSIS
------------------------------------------------------------------------------
Input electron density              ... PbMACl3_mp2_md_4.orca.pmp2ur
BaseName (.gbw .S,...)              ... PbMACl3_mp2_md_4.orca

                    ********************************
                    * MULLIKEN POPULATION ANALYSIS *
                    ********************************

-----------------------
MULLIKEN ATOMIC CHARGES
-----------------------
   0 C :   -0.255836
   1 N :   -0.304998
   2 H :    0.312048
   3 H :    0.287064
   4 H :    0.290818
   5 H :    0.163779
   6 H :    0.196807
   7 H :    0.149960
   8 Pb:    0.786904
   9 Cl:   -0.569146
  10 Cl:   -0.528597
  11 Cl:   -0.528803
Sum of atomic charges:   -0.0000000

--------------------------------
MULLIKEN REDUCED ORBITAL CHARGES
--------------------------------
  0 C s       :     3.288779  s :     3.288779
      pz      :     1.094690  p :     2.883096
      px      :     1.093963
      py      :     0.694443
      dz2     :     0.012325  d :     0.077083
      dxz     :     0.014810
      dyz     :     0.015294
      dx2y2   :     0.021105
      dxy     :     0.013550
      f0      :     0.000922  f :     0.006877
      f+1     :     0.000561
      f-1     :     0.000939
      f+2     :     0.001581
      f-2     :     0.000429
      f+3     :     0.001062
      f-3     :     0.001383
  1 N s       :     3.437358  s :     3.437358
      pz      :     1.281388  p :     3.805221
      px      :     1.267199
      py      :     1.256634
      dz2     :     0.006760  d :     0.059062
      dxz     :     0.010340
      dyz     :     0.015679
      dx2y2   :     0.014282
      dxy     :     0.012001
      f0      :     0.000421  f :     0.003357
      f+1     :     0.000236
      f-1     :     0.000552
      f+2     :     0.000798
      f-2     :     0.000309
      f+3     :     0.000555
      f-3     :     0.000486
  2 H s       :     0.642216  s :     0.642216
      pz      :     0.010754  p :     0.045736
      px      :     0.027647
      py      :     0.007335
  3 H s       :     0.679321  s :     0.679321
      pz      :     0.009505  p :     0.033615
      px      :     0.016374
      py      :     0.007736
  4 H s       :     0.672166  s :     0.672166
      pz      :     0.018604  p :     0.037016
      px      :     0.007217
      py      :     0.011195
  5 H s       :     0.813880  s :     0.813880
      pz      :     0.012415  p :     0.022341
      px      :     0.004701
      py      :     0.005226
  6 H s       :     0.777609  s :     0.777609
      pz      :     0.008748  p :     0.025584
      px      :     0.012949
      py      :     0.003887
  7 H s       :     0.827438  s :     0.827438
      pz      :     0.006526  p :     0.022602
      px      :     0.011273
      py      :     0.004803
  8 Pbs       :     3.918349  s :     3.918349
      pz      :     2.408516  p :     7.055976
      px      :     2.336846
      py      :     2.310614
      dz2     :     2.025360  d :    10.130283
      dxz     :     2.025532
      dyz     :     2.019804
      dx2y2   :     2.034872
      dxy     :     2.024715
      f0      :     0.011242  f :     0.108489
      f+1     :     0.010762
      f-1     :     0.013973
      f+2     :     0.016748
      f-2     :     0.014452
      f+3     :     0.019094
      f-3     :     0.022219
  9 Cls       :     5.950838  s :     5.950838
      pz      :     3.905924  p :    11.559148
      px      :     3.786063
      py      :     3.867161
      dz2     :     0.010413  d :     0.055764
      dxz     :     0.010014
      dyz     :     0.008946
      dx2y2   :     0.013649
      dxy     :     0.012742
      f0      :     0.000446  f :     0.003396
      f+1     :     0.000520
      f-1     :     0.000411
      f+2     :     0.000431
      f-2     :     0.000441
      f+3     :     0.000526
      f-3     :     0.000622
 10 Cls       :     5.949255  s :     5.949255
      pz      :     3.877021  p :    11.499890
      px      :     3.890524
      py      :     3.732345
      dz2     :     0.011464  d :     0.074789
      dxz     :     0.011843
      dyz     :     0.015739
      dx2y2   :     0.020005
      dxy     :     0.015737
      f0      :     0.000628  f :     0.004663
      f+1     :     0.000470
      f-1     :     0.000629
      f+2     :     0.000741
      f-2     :     0.000508
      f+3     :     0.000804
      f-3     :     0.000883
 11 Cls       :     5.947830  s :     5.947830
      pz      :     3.875101  p :    11.521887
      px      :     3.821433
      py      :     3.825354
      dz2     :     0.009752  d :     0.055537
      dxz     :     0.011526
      dyz     :     0.012161
      dx2y2   :     0.009659
      dxy     :     0.012440
      f0      :     0.000476  f :     0.003549
      f+1     :     0.000465
      f-1     :     0.000483
      f+2     :     0.000470
      f-2     :     0.000664
      f+3     :     0.000500
      f-3     :     0.000492


                     *******************************
                     * LOEWDIN POPULATION ANALYSIS *
                     *******************************

----------------------
LOEWDIN ATOMIC CHARGES
----------------------
   0 C :   -0.295751
   1 N :    0.076900
   2 H :    0.171704
   3 H :    0.199836
   4 H :    0.182539
   5 H :    0.130382
   6 H :    0.123820
   7 H :    0.116763
   8 Pb:   -0.162035
   9 Cl:   -0.272422
  10 Cl:   -0.046962
  11 Cl:   -0.224774

-------------------------------
LOEWDIN REDUCED ORBITAL CHARGES
-------------------------------
  0 C s       :     2.887235  s :     2.887235
      pz      :     1.104751  p :     3.074535
      px      :     1.128318
      py      :     0.841466
      dz2     :     0.040889  d :     0.299018
      dxz     :     0.051162
      dyz     :     0.066339
      dx2y2   :     0.084650
      dxy     :     0.055977
      f0      :     0.004694  f :     0.034963
      f+1     :     0.001797
      f-1     :     0.006042
      f+2     :     0.005952
      f-2     :     0.001864
      f+3     :     0.006766
      f-3     :     0.007849
  1 N s       :     3.014203  s :     3.014203
      pz      :     1.235848  p :     3.729620
      px      :     1.237185
      py      :     1.256587
      dz2     :     0.018037  d :     0.168838
      dxz     :     0.030142
      dyz     :     0.042822
      dx2y2   :     0.044450
      dxy     :     0.033386
      f0      :     0.001444  f :     0.010440
      f+1     :     0.000536
      f-1     :     0.002135
      f+2     :     0.001704
      f-2     :     0.001059
      f+3     :     0.002304
      f-3     :     0.001258
  2 H s       :     0.689166  s :     0.689166
      pz      :     0.030434  p :     0.139129
      px      :     0.088134
      py      :     0.020562
  3 H s       :     0.700799  s :     0.700799
      pz      :     0.027186  p :     0.099365
      px      :     0.051139
      py      :     0.021040
  4 H s       :     0.705003  s :     0.705003
      pz      :     0.058276  p :     0.112458
      px      :     0.022106
      py      :     0.032076
  5 H s       :     0.807108  s :     0.807108
      pz      :     0.035073  p :     0.062510
      px      :     0.013817
      py      :     0.013621
  6 H s       :     0.803774  s :     0.803774
      pz      :     0.025219  p :     0.072406
      px      :     0.037036
      py      :     0.010150
  7 H s       :     0.817804  s :     0.817804
      pz      :     0.018864  p :     0.065432
      px      :     0.033396
      py      :     0.013173
  8 Pbs       :     3.676269  s :     3.676269
      pz      :     2.528246  p :     7.547809
      px      :     2.497844
      py      :     2.521718
      dz2     :     2.110860  d :    10.672333
      dxz     :     2.099671
      dyz     :     2.120463
      dx2y2   :     2.185896
      dxy     :     2.155443
      f0      :     0.025030  f :     0.265623
      f+1     :     0.021899
      f-1     :     0.030616
      f+2     :     0.039405
      f-2     :     0.035116
      f+3     :     0.044006
      f-3     :     0.069551
  9 Cls       :     5.765061  s :     5.765061
      pz      :     3.859522  p :    11.430272
      px      :     3.749156
      py      :     3.821595
      dz2     :     0.014751  d :     0.072595
      dxz     :     0.009797
      dyz     :     0.008775
      dx2y2   :     0.020306
      dxy     :     0.018965
      f0      :     0.000445  f :     0.004494
      f+1     :     0.000854
      f-1     :     0.000465
      f+2     :     0.000441
      f-2     :     0.000444
      f+3     :     0.000652
      f-3     :     0.001194
 10 Cls       :     5.660450  s :     5.660450
      pz      :     3.811729  p :    11.262500
      px      :     3.768979
      py      :     3.681791
      dz2     :     0.015017  d :     0.116122
      dxz     :     0.013529
      dyz     :     0.028129
      dx2y2   :     0.041197
      dxy     :     0.018249
      f0      :     0.001076  f :     0.007891
      f+1     :     0.000544
      f-1     :     0.000812
      f+2     :     0.001706
      f-2     :     0.000605
      f+3     :     0.001171
      f-3     :     0.001977
 11 Cls       :     5.754719  s :     5.754719
      pz      :     3.830177  p :    11.395197
      px      :     3.779587
      py      :     3.785432
      dz2     :     0.009467  d :     0.070283
      dxz     :     0.016566
      dyz     :     0.018531
      dx2y2   :     0.009310
      dxy     :     0.016409
      f0      :     0.000608  f :     0.004576
      f+1     :     0.000542
      f-1     :     0.000575
      f+2     :     0.000477
      f-2     :     0.001236
      f+3     :     0.000598
      f-3     :     0.000540


                      *****************************
                      * MAYER POPULATION ANALYSIS *
                      *****************************

  NA   - Mulliken gross atomic population
  ZA   - Total nuclear charge
  QA   - Mulliken gross atomic charge
  VA   - Mayer's total valence
  BVA  - Mayer's bonded valence
  FA   - Mayer's free valence

  ATOM       NA         ZA         QA         VA         BVA        FA
  0 C      6.2558     6.0000    -0.2558     3.7984     3.6793     0.1191
  1 N      7.3050     7.0000    -0.3050     3.4936     3.3485     0.1451
  2 H      0.6880     1.0000     0.3120     0.9511     0.9313     0.0198
  3 H      0.7129     1.0000     0.2871     0.9237     0.9042     0.0194
  4 H      0.7092     1.0000     0.2908     0.9582     0.9390     0.0193
  5 H      0.8362     1.0000     0.1638     0.9703     0.9516     0.0187
  6 H      0.8032     1.0000     0.1968     0.9769     0.9580     0.0189
  7 H      0.8500     1.0000     0.1500     0.9650     0.9460     0.0191
  8 Pb    21.2131    22.0000     0.7869     2.2834     1.9097     0.3736
  9 Cl    17.5691    17.0000    -0.5691     0.9634     0.7005     0.2630
 10 Cl    17.5286    17.0000    -0.5286     1.0068     0.7442     0.2626
 11 Cl    17.5288    17.0000    -0.5288     1.0340     0.7708     0.2632

  Mayer bond orders larger than 0.1
B(  0-C ,  1-N ) :   0.8488 B(  0-C ,  5-H ) :   0.9521 B(  0-C ,  6-H ) :   0.9330 
B(  0-C ,  7-H ) :   0.9410 B(  1-N ,  2-H ) :   0.7847 B(  1-N ,  3-H ) :   0.8706 
B(  1-N ,  4-H ) :   0.8589 B(  2-H , 10-Cl) :   0.1416 B(  8-Pb,  9-Cl) :   0.5991 
B(  8-Pb, 10-Cl) :   0.5463 B(  8-Pb, 11-Cl) :   0.7524 


                *******************************************
                * RELAXED MP2 DENSITY POPULATION ANALYSIS *
                *******************************************

------------------------------------------------------------------------------
                           ORCA POPULATION ANALYSIS
------------------------------------------------------------------------------
Input electron density              ... PbMACl3_mp2_md_4.orca.pmp2re
BaseName (.gbw .S,...)              ... PbMACl3_mp2_md_4.orca

                    ********************************
                    * MULLIKEN POPULATION ANALYSIS *
                    ********************************

-----------------------
MULLIKEN ATOMIC CHARGES
-----------------------
   0 C :   -0.273210
   1 N :   -0.301159
   2 H :    0.305951
   3 H :    0.285049
   4 H :    0.287331
   5 H :    0.167562
   6 H :    0.197438
   7 H :    0.152666
   8 Pb:    0.730618
   9 Cl:   -0.545198
  10 Cl:   -0.502612
  11 Cl:   -0.504437
Sum of atomic charges:   -0.0000000

--------------------------------
MULLIKEN REDUCED ORBITAL CHARGES
--------------------------------
  0 C s       :     3.291567  s :     3.291567
      pz      :     1.099369  p :     2.902081
      px      :     1.098397
      py      :     0.704316
      dz2     :     0.011586  d :     0.072859
      dxz     :     0.013429
      dyz     :     0.014660
      dx2y2   :     0.019923
      dxy     :     0.013262
      f0      :     0.000900  f :     0.006702
      f+1     :     0.000546
      f-1     :     0.000909
      f+2     :     0.001540
      f-2     :     0.000425
      f+3     :     0.001035
      f-3     :     0.001348
  1 N s       :     3.438838  s :     3.438838
      pz      :     1.281615  p :     3.801517
      px      :     1.268844
      py      :     1.251058
      dz2     :     0.006461  d :     0.057507
      dxz     :     0.009752
      dyz     :     0.015459
      dx2y2   :     0.013793
      dxy     :     0.012043
      f0      :     0.000412  f :     0.003297
      f+1     :     0.000235
      f-1     :     0.000538
      f+2     :     0.000780
      f-2     :     0.000304
      f+3     :     0.000556
      f-3     :     0.000472
  2 H s       :     0.648858  s :     0.648858
      pz      :     0.010603  p :     0.045191
      px      :     0.027219
      py      :     0.007368
  3 H s       :     0.681747  s :     0.681747
      pz      :     0.009450  p :     0.033203
      px      :     0.016039
      py      :     0.007715
  4 H s       :     0.676081  s :     0.676081
      pz      :     0.018189  p :     0.036588
      px      :     0.007261
      py      :     0.011138
  5 H s       :     0.810490  s :     0.810490
      pz      :     0.011983  p :     0.021948
      px      :     0.004745
      py      :     0.005220
  6 H s       :     0.777363  s :     0.777363
      pz      :     0.008551  p :     0.025198
      px      :     0.012649
      py      :     0.003999
  7 H s       :     0.825064  s :     0.825064
      pz      :     0.006466  p :     0.022270
      px      :     0.010971
      py      :     0.004834
  8 Pbs       :     3.932270  s :     3.932270
      pz      :     2.410690  p :     7.101023
      px      :     2.358587
      py      :     2.331746
      dz2     :     2.024865  d :    10.129541
      dxz     :     2.025892
      dyz     :     2.018963
      dx2y2   :     2.034815
      dxy     :     2.025006
      f0      :     0.011043  f :     0.106547
      f+1     :     0.010506
      f-1     :     0.013773
      f+2     :     0.016491
      f-2     :     0.014104
      f+3     :     0.018881
      f-3     :     0.021749
  9 Cls       :     5.951649  s :     5.951649
      pz      :     3.898360  p :    11.534452
      px      :     3.777995
      py      :     3.858098
      dz2     :     0.010421  d :     0.055691
      dxz     :     0.009961
      dyz     :     0.008907
      dx2y2   :     0.013697
      dxy     :     0.012706
      f0      :     0.000447  f :     0.003405
      f+1     :     0.000519
      f-1     :     0.000412
      f+2     :     0.000432
      f-2     :     0.000442
      f+3     :     0.000531
      f-3     :     0.000622
 10 Cls       :     5.949307  s :     5.949307
      pz      :     3.867195  p :    11.472801
      px      :     3.879968
      py      :     3.725638
      dz2     :     0.011491  d :     0.075817
      dxz     :     0.011963
      dyz     :     0.016014
      dx2y2   :     0.020363
      dxy     :     0.015986
      f0      :     0.000630  f :     0.004687
      f+1     :     0.000471
      f-1     :     0.000631
      f+2     :     0.000742
      f-2     :     0.000512
      f+3     :     0.000815
      f-3     :     0.000886
 11 Cls       :     5.948776  s :     5.948776
      pz      :     3.865988  p :    11.496779
      px      :     3.812860
      py      :     3.817931
      dz2     :     0.009742  d :     0.055322
      dxz     :     0.011505
      dyz     :     0.012175
      dx2y2   :     0.009668
      dxy     :     0.012231
      f0      :     0.000476  f :     0.003559
      f+1     :     0.000467
      f-1     :     0.000486
      f+2     :     0.000473
      f-2     :     0.000661
      f+3     :     0.000501
      f-3     :     0.000494


                     *******************************
                     * LOEWDIN POPULATION ANALYSIS *
                     *******************************

----------------------
LOEWDIN ATOMIC CHARGES
----------------------
   0 C :   -0.306412
   1 N :    0.074266
   2 H :    0.170238
   3 H :    0.199874
   4 H :    0.181852
   5 H :    0.132270
   6 H :    0.124905
   7 H :    0.118545
   8 Pb:   -0.192309
   9 Cl:   -0.257733
  10 Cl:   -0.036320
  11 Cl:   -0.209175

-------------------------------
LOEWDIN REDUCED ORBITAL CHARGES
-------------------------------
  0 C s       :     2.888992  s :     2.888992
      pz      :     1.108215  p :     3.088250
      px      :     1.131543
      py      :     0.848492
      dz2     :     0.039931  d :     0.294476
      dxz     :     0.049904
      dyz     :     0.065556
      dx2y2   :     0.083410
      dxy     :     0.055674
      f0      :     0.004652  f :     0.034694
      f+1     :     0.001784
      f-1     :     0.006006
      f+2     :     0.005896
      f-2     :     0.001848
      f+3     :     0.006727
      f-3     :     0.007780
  1 N s       :     3.016155  s :     3.016155
      pz      :     1.238121  p :     3.730465
      px      :     1.238636
      py      :     1.253708
      dz2     :     0.017861  d :     0.168627
      dxz     :     0.029787
      dyz     :     0.042802
      dx2y2   :     0.044566
      dxy     :     0.033610
      f0      :     0.001451  f :     0.010486
      f+1     :     0.000536
      f-1     :     0.002142
      f+2     :     0.001711
      f-2     :     0.001056
      f+3     :     0.002322
      f-3     :     0.001269
  2 H s       :     0.690838  s :     0.690838
      pz      :     0.030304  p :     0.138925
      px      :     0.088051
      py      :     0.020569
  3 H s       :     0.700950  s :     0.700950
      pz      :     0.027189  p :     0.099177
      px      :     0.050994
      py      :     0.020994
  4 H s       :     0.705859  s :     0.705859
      pz      :     0.058018  p :     0.112290
      px      :     0.022156
      py      :     0.032115
  5 H s       :     0.805164  s :     0.805164
      pz      :     0.034829  p :     0.062566
      px      :     0.013965
      py      :     0.013772
  6 H s       :     0.802619  s :     0.802619
      pz      :     0.025132  p :     0.072476
      px      :     0.036940
      py      :     0.010404
  7 H s       :     0.815855  s :     0.815855
      pz      :     0.018908  p :     0.065600
      px      :     0.033326
      py      :     0.013366
  8 Pbs       :     3.688960  s :     3.688960
      pz      :     2.525886  p :     7.574366
      px      :     2.513001
      py      :     2.535479
      dz2     :     2.109389  d :    10.665952
      dxz     :     2.099204
      dyz     :     2.118625
      dx2y2   :     2.184326
      dxy     :     2.154408
      f0      :     0.024749  f :     0.263031
      f+1     :     0.021525
      f-1     :     0.030214
      f+2     :     0.039097
      f-2     :     0.034667
      f+3     :     0.043593
      f-3     :     0.069187
  9 Cls       :     5.768040  s :     5.768040
      pz      :     3.853124  p :    11.411816
      px      :     3.743835
      py      :     3.814858
      dz2     :     0.014916  d :     0.073323
      dxz     :     0.009825
      dyz     :     0.008759
      dx2y2   :     0.020600
      dxy     :     0.019223
      f0      :     0.000450  f :     0.004554
      f+1     :     0.000865
      f-1     :     0.000468
      f+2     :     0.000444
      f-2     :     0.000447
      f+3     :     0.000665
      f-3     :     0.001216
 10 Cls       :     5.663969  s :     5.663969
      pz      :     3.804852  p :    11.245716
      px      :     3.761687
      py      :     3.679177
      dz2     :     0.015259  d :     0.118605
      dxz     :     0.013699
      dyz     :     0.028560
      dx2y2   :     0.042367
      dxy     :     0.018720
      f0      :     0.001088  f :     0.008031
      f+1     :     0.000546
      f-1     :     0.000835
      f+2     :     0.001728
      f-2     :     0.000613
      f+3     :     0.001194
      f-3     :     0.002027
 11 Cls       :     5.757837  s :     5.757837
      pz      :     3.822717  p :    11.375676
      px      :     3.772933
      py      :     3.780027
      dz2     :     0.009476  d :     0.071013
      dxz     :     0.016800
      dyz     :     0.018790
      dx2y2   :     0.009388
      dxy     :     0.016560
      f0      :     0.000618  f :     0.004648
      f+1     :     0.000546
      f-1     :     0.000578
      f+2     :     0.000484
      f-2     :     0.001265
      f+3     :     0.000608
      f-3     :     0.000549


                      *****************************
                      * MAYER POPULATION ANALYSIS *
                      *****************************

  NA   - Mulliken gross atomic population
  ZA   - Total nuclear charge
  QA   - Mulliken gross atomic charge
  VA   - Mayer's total valence
  BVA  - Mayer's bonded valence
  FA   - Mayer's free valence

  ATOM       NA         ZA         QA         VA         BVA        FA
  0 C      6.2732     6.0000    -0.2732     3.7997     3.6809     0.1187
  1 N      7.3012     7.0000    -0.3012     3.4971     3.3523     0.1448
  2 H      0.6940     1.0000     0.3060     0.9582     0.9385     0.0196
  3 H      0.7150     1.0000     0.2850     0.9253     0.9060     0.0193
  4 H      0.7127     1.0000     0.2873     0.9637     0.9446     0.0191
  5 H      0.8324     1.0000     0.1676     0.9692     0.9506     0.0186
  6 H      0.8026     1.0000     0.1974     0.9802     0.9614     0.0188
  7 H      0.8473     1.0000     0.1527     0.9646     0.9457     0.0190
  8 Pb    21.2694    22.0000     0.7306     2.3700     2.0026     0.3674
  9 Cl    17.5452    17.0000    -0.5452     1.0070     0.7457     0.2614
 10 Cl    17.5026    17.0000    -0.5026     1.0592     0.7980     0.2611
 11 Cl    17.5044    17.0000    -0.5044     1.0773     0.8160     0.2613

  Mayer bond orders larger than 0.1
B(  0-C ,  1-N ) :   0.8571 B(  0-C ,  5-H ) :   0.9495 B(  0-C ,  6-H ) :   0.9293 
B(  0-C ,  7-H ) :   0.9373 B(  1-N ,  2-H ) :   0.7795 B(  1-N ,  3-H ) :   0.8683 
B(  1-N ,  4-H ) :   0.8564 B(  2-H , 10-Cl) :   0.1531 B(  8-Pb,  9-Cl) :   0.6285 
B(  8-Pb, 10-Cl) :   0.5679 B(  8-Pb, 11-Cl) :   0.7911 


-------
TIMINGS
-------

Total time                :  513.591 sec
Integral trafo            :    2.515 sec (  0.5%)
I/O of integrals          :    0.194 sec (  0.0%)
K(i,j) Operators          :    6.024 sec (  1.2%)
T(i,j) pair energies      :    1.155 sec (  0.2%)
V-calculation             :    0.012 sec (  0.0%)
V**(-1/2)                 :    0.026 sec (  0.0%)
Gamma(ia|P)               :    5.432 sec (  1.1%)
Gamma-Trafo               :    0.739 sec (  0.1%)
D(virtual)                :    2.367 sec (  0.5%)
D(internal)               :    3.864 sec (  0.8%)
W(virtual)                :    4.752 sec (  0.9%)
W(internal)               :   15.054 sec (  2.9%)
L(virtual)                :    5.043 sec (  1.0%)
L(internal)               :    0.300 sec (  0.1%)
G(D)                      :   12.772 sec (  2.5%)
G(Z)                      :   13.572 sec (  2.6%)
Z-Vector Solution         :  333.773 sec ( 65.0%)
Z-Vector Solution         :  333.773 sec ( 65.0%)
3-Index Derivative 
+ Separable RIJ part      :    4.244 sec (  0.8%)
2-Index Derivative 
+ Separable RIJ part      :    0.031 sec (  0.0%)
Separable Gradient (COSX) :   99.296 sec ( 19.3%)


---------------------------------------
MP2 TOTAL ENERGY:    -1669.539095149 Eh
---------------------------------------

The final MP2 gradient
  0:  -0.00989857   0.00947043  -0.01327806
  1:  -0.04505469  -0.01859232  -0.01193997
  2:  -0.01146721   0.00405036   0.02021802
  3:   0.01226678  -0.01695055  -0.00036894
  4:   0.01801942   0.02135033   0.00677715
  5:  -0.00523780  -0.00597231   0.02049564
  6:  -0.01126037   0.00001697  -0.01312375
  7:  -0.00079509  -0.00340348  -0.00952805
  8:   0.02878245   0.06434986   0.04757265
  9:  -0.01974928  -0.00476529  -0.00786208
 10:   0.04453305  -0.04937016  -0.02914099
 11:  -0.00070816  -0.00067170  -0.00967015

-----------------------------------
NORM OF THE MP2 GRADIENT:  0.136601
-----------------------------------

Entering the calculation of the dispersion correction...

Checking the input atom types...

Done


-------------------------------------------------------------------------------
                          DFT DISPERSION CORRECTION                            
                                                                               
                                DFTD3 V2.1  Rev 6                               
                          USING Becke-Johnson damping                          
-------------------------------------------------------------------------------
The B2PLYP functional is recognized
Active option DFTDOPT                   ...         4   

molecular C6(AA) [au] = 4868.334967 


            DFT-D V3
 parameters
 s6 scaling factor         :     0.6400 
 a1 scaling factor         :     0.3065 
 s8 scaling factor         :     0.9147 
 a2 scaling factor         :     5.0570 
 ad hoc parameters k1-k3   :    16.0000     1.3333    -4.0000 

 Edisp/kcal,au: -8.296886213032  -0.013221928387 
 E6   /kcal   :  -3.784401526 
 E8   /kcal   :  -4.512484687 
 % E8         :  54.387689201 

-------------------------   ----------------
Dispersion correction           -0.013221928
-------------------------   ----------------


-------------------------   --------------------
FINAL SINGLE POINT ENERGY     -1669.552317077401
-------------------------   --------------------


                            ***************************************
                            *     ORCA property calculations      *
                            ***************************************


  WARNING: The energy has been calculated at the MP2 level but the densities
           used in the property calculations are still SCF densities
           MP2 response densities have not been calculated 
           use %mp2 Density relaxed end
           or  %mp2 Density unrelaxed end

                                    ---------------------
                                    Active property flags
                                    ---------------------
   (+) Dipole Moment


------------------------------------------------------------------------------
                       ORCA ELECTRIC PROPERTIES CALCULATION
------------------------------------------------------------------------------

Dipole Moment Calculation                       ... on
Quadrupole Moment Calculation                   ... off
Polarizability Calculation                      ... off
GBWName                                         ... PbMACl3_mp2_md_4.orca.gbw
Electron density file                           ... PbMACl3_mp2_md_4.orca.scfp.tmp

-------------
DIPOLE MOMENT
-------------
                                X             Y             Z
Electronic contribution:    -57.00274     -50.50085     -43.36401
Nuclear contribution   :     59.71792      54.50647      43.35856
                        -----------------------------------------
Total Dipole Moment    :      2.71518       4.00562      -0.00545
                        -----------------------------------------
Magnitude (a.u.)       :      4.83914
Magnitude (Debye)      :     12.30011


                         *** MP2 UNRELAXED DENSITY ***

------------------------------------------------------------------------------
                       ORCA ELECTRIC PROPERTIES CALCULATION
------------------------------------------------------------------------------

Dipole Moment Calculation                       ... on
Quadrupole Moment Calculation                   ... off
Polarizability Calculation                      ... off
GBWName                                         ... PbMACl3_mp2_md_4.orca.gbw
Electron density file                           ... PbMACl3_mp2_md_4.orca.pmp2ur

-------------
DIPOLE MOMENT
-------------
                                X             Y             Z
Electronic contribution:    -57.00846     -50.52010     -43.35780
Nuclear contribution   :     59.71792      54.50647      43.35856
                        -----------------------------------------
Total Dipole Moment    :      2.70946       3.98637       0.00076
                        -----------------------------------------
Magnitude (a.u.)       :      4.81999
Magnitude (Debye)      :     12.25144


                           *** MP2 RELAXED DENSITY ***

------------------------------------------------------------------------------
                       ORCA ELECTRIC PROPERTIES CALCULATION
------------------------------------------------------------------------------

Dipole Moment Calculation                       ... on
Quadrupole Moment Calculation                   ... off
Polarizability Calculation                      ... off
GBWName                                         ... PbMACl3_mp2_md_4.orca.gbw
Electron density file                           ... PbMACl3_mp2_md_4.orca.pmp2re

-------------
DIPOLE MOMENT
-------------
                                X             Y             Z
Electronic contribution:    -57.05701     -50.60328     -43.37942
Nuclear contribution   :     59.71792      54.50647      43.35856
                        -----------------------------------------
Total Dipole Moment    :      2.66091       3.90319      -0.02086
                        -----------------------------------------
Magnitude (a.u.)       :      4.72396
Magnitude (Debye)      :     12.00735


Timings for individual modules:

Sum of individual times         ...      836.606 sec (=  13.943 min)
GTO integral calculation        ...        2.080 sec (=   0.035 min)   0.2 %
SCF iterations                  ...      319.789 sec (=   5.330 min)  38.2 %
MP2 module                      ...      514.737 sec (=   8.579 min)  61.5 %
                             ****ORCA TERMINATED NORMALLY****
TOTAL RUN TIME: 0 days 0 hours 13 minutes 58 seconds 42 msec
