
                                 *****************
                                 * O   R   C   A *
                                 *****************

           --- An Ab Initio, DFT and Semiempirical electronic structure package ---

                  #######################################################
                  #                        -***-                        #
                  #  Department of molecular theory and spectroscopy    #
                  #              Directorship: Frank Neese              #
                  # Max Planck Institute for Chemical Energy Conversion #
                  #                  D-45470 Muelheim/Ruhr              #
                  #                       Germany                       #
                  #                                                     #
                  #                  All rights reserved                #
                  #                        -***-                        #
                  #######################################################


                         Program Version 3.0.3 - RELEASE   -


 With contributions from (in alphabetic order):
   Ute Becker             : Parallelization
   Dmytro Bykov           : SCF Hessian
   Dmitry Ganyushin       : Spin-Orbit,Spin-Spin,Magnetic field MRCI
   Andreas Hansen         : Spin unrestricted coupled pair/coupled cluster methods
   Dimitrios Liakos       : Extrapolation schemes; parallel MDCI
   Robert Izsak           : Overlap fitted RIJCOSX, COSX-SCS-MP3
   Christian Kollmar      : KDIIS, OOCD, Brueckner-CCSD(T), CCSD density
   Simone Kossmann        : Meta GGA functionals, TD-DFT gradient, OOMP2, MP2 Hessian
   Taras Petrenko         : DFT Hessian,TD-DFT gradient, ASA and ECA modules, normal mode analysis, Resonance Raman, ABS, FL, XAS/XES, NRVS
   Christoph Reimann      : Effective Core Potentials
   Michael Roemelt        : Restricted open shell CIS
   Christoph Riplinger    : Improved optimizer, TS searches, QM/MM, DLPNO-CCSD
   Barbara Sandhoefer     : DKH picture change effects
   Igor Schapiro          : Molecular dynamics
   Kantharuban Sivalingam : CASSCF convergence, NEVPT2
   Boris Wezisla          : Elementary symmetry handling
   Frank Wennmohs         : Technical directorship


 We gratefully acknowledge several colleagues who have allowed us to
 interface, adapt or use parts of their codes:
   Stefan Grimme, W. Hujo, H. Kruse, T. Risthaus : VdW corrections, initial TS optimization,
                                                   DFT functionals, gCP
   Ed Valeev                                     : LibInt (2-el integral package), F12 methods
   Garnet Chan, S. Sharma, R. Olivares           : DMRG
   Ulf Ekstrom                                   : XCFun DFT Library
   Mihaly Kallay                                 : mrcc  (arbitrary order and MRCC methods)
   Andreas Klamt, Michael Diedenhofen            : otool_cosmo (COSMO solvation model)
   Frank Weinhold                                : gennbo (NPA and NBO analysis)
   Christopher J. Cramer and Donald G. Truhlar   : smd solvation model


 Your calculation uses the libint2 library for the computation of 2-el integrals
 For citations please refer to: http://libint.valeyev.net

 This ORCA versions uses:
   CBLAS   interface :  Fast vector & matrix operations
   LAPACKE interface :  Fast linear algebra routines
   SCALAPACK package :  Parallel linear algebra routines


Your calculation utilizes the basis: Ahlrichs-TZV
Cite in your paper:
H - Kr: A. Schaefer, H. Horn and R. Ahlrichs, J. Chem. Phys. 97, 2571 (1992).

The def2-TZV basis will be loaded
Cite in your paper:
 	F. Weigend, R. Ahlrichs, Phys. Chem. Chem. Phys. 2005, 7, 3297.

Your calculation utilizes the atom-pairwise dispersion correction
with the Becke-Johnson damping scheme (D3BJ)
Cite in your paper:
S.Grimme, S.Ehrlich, L.Goerigk, J Comput Chem, (2011), 32, 1456–1465 
S.Grimme, J.Antony, S.Ehrlich and H.Krieg, J.Chem.Phys., 132, (2010), 154104 
   

================================================================================
                                        WARNINGS
                       Please study these warnings very carefully!
================================================================================

WARNING: The RI method has been chosen with no auxiliary basis (AUX or GTOAUX in BASIS block)
        Standard TZV/J expansion basis used (GTOAUX=TZV_J)

Now building the actual basis set
cite the ECPs for Pb [SD(60,MDF)] as follows:
  B. Metz, H. Stoll, M. Dolg, J. Chem. Phys. 113, 2563 (2000).

ECP parameters for Pb [SD(60,MDF)] have been obtained from:
  pseudopotential library of the Stuttgart/Cologne group
  http://www.theochem.uni-stuttgart.de/pseudopotentials/

cite the ECP basis sets for Pb [DEF2-TZVP] as follows:
  F. Weigend, R. Ahlrichs; Phys. Chem. Chem. Phys. 7, 3297(2005).

ECP basis sets for Pb [DEF2-TZVP] have been obtained from:
  Turbomole basis set library
  ftp://ftp.chemie.uni-karlsruhe.de/pub/basen/



INFO   : the flag for use of LIBINT has been found!

================================================================================
                                       INPUT FILE
================================================================================
NAME = PbMACl3_mp2_md_2.orca
|  1> ! RIJCOSX RI-B2PLYP D3BJ def2-TZVP ECP{def2-TZVP} TIGHTSCF Grid5 FinalGrid6 SlowConv MORead
|  2> %method
|  3>  RunTyp Gradient
|  4>  end
|  5> %maxcore 1000
|  6> %moinp "previous.gbw"
|  7> *xyz 0 1
|  8> C -0.310057 -0.745488 -1.460220 
|  9> N -0.977403 0.382782 -0.786926 
| 10> H -0.781482 0.363763 0.204031 
| 11> H -1.978410 0.309634 -0.933634 
| 12> H -0.654529 1.257010 -1.177110 
| 13> H -0.622933 -1.692460 -1.018410 
| 14> H 0.774207 -0.669295 -1.372040 
| 15> H -0.569928 -0.762153 -2.519770 
| 16> Pb -3.155150 -2.538180 -2.425360 
| 17> Cl -0.817514 -3.182950 -2.986010 
| 18> Cl -3.352850 -0.181151 -1.840520 
| 19> Cl -4.090790 -4.036740 -0.679639 
| 20> *
| 21> 
| 22>                          ****END OF INPUT****
================================================================================

                     *******************************
                     * Energy+Gradient Calculation *
                     *******************************

---------------------------------
CARTESIAN COORDINATES (ANGSTROEM)
---------------------------------
  C     -0.310057   -0.745488   -1.460220
  N     -0.977403    0.382782   -0.786926
  H     -0.781482    0.363763    0.204031
  H     -1.978410    0.309634   -0.933634
  H     -0.654529    1.257010   -1.177110
  H     -0.622933   -1.692460   -1.018410
  H      0.774207   -0.669295   -1.372040
  H     -0.569928   -0.762153   -2.519770
  Pb    -3.155150   -2.538180   -2.425360
  Cl    -0.817514   -3.182950   -2.986010
  Cl    -3.352850   -0.181151   -1.840520
  Cl    -4.090790   -4.036740   -0.679639

----------------------------
CARTESIAN COORDINATES (A.U.)
----------------------------
  NO LB      ZA    FRAG    MASS        X           Y           Z
   0 C     6.0000    0    12.011         -0.585922815905222         -1.408768156124686         -2.759415895274490
   1 N     7.0000    0    14.007         -1.847023992473033          0.723353148994645         -1.487074627662115
   2 H     1.0000    0     1.008         -1.476786958589048          0.687412447653596          0.385562712830087
   3 H     1.0000    0     1.008         -3.738653080611143          0.585123461750573         -1.764312569317434
   4 H     1.0000    0     1.008         -1.236880556709343          2.375404647600353         -2.224415529500045
   5 H     1.0000    0     1.008         -1.177172769781967         -3.198285892616362         -1.924515992046742
   6 H     1.0000    0     1.008          1.463039200964770         -1.264784252802824         -2.592779844785314
   7 H     1.0000    0     1.008         -1.077007836053471         -1.440260442146484         -4.761675220470752
   8 Pb   22.0000*   0   207.200  -5.962369411441637  -4.796465078596243  -4.583266176167247
   9 Cl   17.0000    0    35.453         -1.544877570646498         -6.014903797964648         -5.642741133150197
  10 Cl   17.0000    0    35.453         -6.335968268117869         -0.342325778885969         -3.478078744004742
  11 Cl   17.0000    0    35.453         -7.730472771383718         -7.628333073845273         -1.284331579932106
* core charge reduced due to ECP

--------------------------------
INTERNAL COORDINATES (ANGSTROEM)
--------------------------------
 C      0   0   0   0.000000     0.000     0.000
 N      1   0   0   1.473658     0.000     0.000
 H      2   1   0   1.010318   110.237     0.000
 H      2   1   3   1.014342   109.002   239.931
 H      2   1   3   1.010330   109.957   120.769
 H      1   2   3   1.090799   110.471    56.983
 H      1   2   3   1.090509   111.089   296.841
 H      1   2   3   1.091081   110.336   176.537
 Pb     6   1   2   3.017760   107.166    86.437
 Cl     6   1   2   2.476060   102.901   141.058
 Cl     4   2   1   1.718254   152.415   331.888
 Cl     9   6   1   2.483676    99.062   202.759

---------------------------
INTERNAL COORDINATES (A.U.)
---------------------------
 C      0   0   0   0.000000     0.000     0.000
 N      1   0   0   2.784811     0.000     0.000
 H      2   1   0   1.909224   110.237     0.000
 H      2   1   3   1.916828   109.002   239.931
 H      2   1   3   1.909246   109.957   120.769
 H      1   2   3   2.061312   110.471    56.983
 H      1   2   3   2.060763   111.089   296.841
 H      1   2   3   2.061844   110.336   176.537
 Pb     6   1   2   5.702739   107.166    86.437
 Cl     6   1   2   4.679075   102.901   141.058
 Cl     4   2   1   3.247030   152.415   331.888
 Cl     9   6   1   4.693467    99.062   202.759

---------------------
BASIS SET INFORMATION
---------------------
There are 5 groups of distinct atoms

 Group   1 Type C   : 11s6p2d1f contracted to 5s3p2d1f pattern {62111/411/11/1}
 Group   2 Type N   : 11s6p2d1f contracted to 5s3p2d1f pattern {62111/411/11/1}
 Group   3 Type H   : 5s1p contracted to 3s1p pattern {311/1}
 Group   4 Type Pb  : 10s9p8d2f contracted to 6s5p3d2f pattern {421111/33111/611/11}
 Group   5 Type Cl  : 14s9p3d1f contracted to 5s5p2d1f pattern {73211/51111/21/1}

Atom   0C    basis set group =>   1
Atom   1N    basis set group =>   2
Atom   2H    basis set group =>   3
Atom   3H    basis set group =>   3
Atom   4H    basis set group =>   3
Atom   5H    basis set group =>   3
Atom   6H    basis set group =>   3
Atom   7H    basis set group =>   3
Atom   8Pb   basis set group =>   4
Atom   9Cl   basis set group =>   5
Atom  10Cl   basis set group =>   5
Atom  11Cl   basis set group =>   5
-------------------------------
AUXILIARY BASIS SET INFORMATION
-------------------------------
There are 5 groups of distinct atoms

 Group   1 Type C   : 12s5p4d2f1g contracted to 6s4p3d1f1g pattern {711111/2111/211/2/1}
 Group   2 Type N   : 12s5p4d2f1g contracted to 6s4p3d1f1g pattern {711111/2111/211/2/1}
 Group   3 Type H   : 5s2p1d contracted to 3s1p1d pattern {311/2/1}
 Group   4 Type Pb  : 31s12p8d6f3g contracted to 31s12p8d6f3g pattern {1111111111111111111111111111111/111111111111/11111111/111111/111}
 Group   5 Type Cl  : 14s5p5d2f1g contracted to 8s4p3d1f1g pattern {71111111/2111/311/2/1}

Atom   0C    basis set group =>   1
Atom   1N    basis set group =>   2
Atom   2H    basis set group =>   3
Atom   3H    basis set group =>   3
Atom   4H    basis set group =>   3
Atom   5H    basis set group =>   3
Atom   6H    basis set group =>   3
Atom   7H    basis set group =>   3
Atom   8Pb   basis set group =>   4
Atom   9Cl   basis set group =>   5
Atom  10Cl   basis set group =>   5
Atom  11Cl   basis set group =>   5

-------------------------
ECP PARAMETER INFORMATION
-------------------------

 Group 1, Type Pb ECP SD(60,MDF) (replacing 60 core electrons, lmax=5)

Atom   8Pb   ECP group =>   1


------------------------------------------------------------------------------
                           ORCA GTO INTEGRAL CALCULATION
                           -- RI-GTO INTEGRALS CHOSEN --
------------------------------------------------------------------------------

                         BASIS SET STATISTICS AND STARTUP INFO

Gaussian basis set:
 # of primitive gaussian shells          ...  186
 # of primitive gaussian functions       ...  420
 # of contracted shells                  ...  101
 # of contracted basis functions         ...  259
 Highest angular momentum                ...    3
 Maximum contraction depth               ...    7
Auxiliary gaussian basis set:
 # of primitive gaussian shells          ...  237
 # of primitive gaussian functions       ...  643
 # of contracted shells                  ...  171
 # of contracted aux-basis functions     ...  493
 Highest angular momentum                ...    4
 Maximum contraction depth               ...    7
Ratio of auxiliary to basis functions    ...  1.90
Integral package used                  ... LIBINT
 One Electron integrals                  
   ECP integrals                         ... done
 Ordering auxiliary basis shells         ... done
 Integral threshhold             Thresh  ...  2.500e-11
 Primitive cut-off               TCut    ...  2.500e-12
 Pre-screening matrix                    ... done
 Shell pair data                         ... 
 Ordering of the shell pairs             ... done (   0.001 sec) 4398 of 5151 pairs
 Determination of significant pairs      ... done (   0.000 sec)
 Creation of shell pair data             ... done (   0.002 sec)
 Storage of shell pair data              ... done (   0.001 sec)
 Shell pair data done in (   0.003 sec)
 Computing two index integrals           ... done
 Cholesky decomposition of the V-matrix  ... done


Timings:
 Total evaluation time                   ...   0.718 sec (  0.012 min)
 One electron matrix time                ...   0.397 sec (  0.007 min) = 55.4%
 Schwartz matrix evaluation time         ...   0.200 sec (  0.003 min) = 27.8%
 Two index repulsion integral time       ...   0.008 sec (  0.000 min) =  1.1%
 Cholesky decomposition of V             ...   0.052 sec (  0.001 min) =  7.3%
 Three index repulsion integral time     ...   0.000 sec (  0.000 min) =  0.0%

-------------------------------------------------------------------------------
                                 ORCA SCF
-------------------------------------------------------------------------------

------------
SCF SETTINGS
------------
Hamiltonian:
 Density Functional     Method          .... DFT(GTOs)
 Exchange Functional    Exchange        .... B88
   X-Alpha parameter    XAlpha          ....  0.666667
   Becke's b parameter  XBeta           ....  0.004200
 Correlation Functional Correlation     .... LYP
 LDA part of GGA corr.  LDAOpt          .... VWN-3
 Gradients option       PostSCFGGA      .... off
 Hybrid DFT is turned on
   Fraction HF Exchange ScalHFX         ....  0.530000
   Scaling of DF-GGA-X  ScalDFX         ....  0.470000
   Scaling of DF-GGA-C  ScalDFC         ....  0.730000
   Scaling of DF-LDA-C  ScalLDAC        ....  0.730000
   Perturbative correction              ....  0.270000
 RI-approximation to the Coulomb term is turned on
   Number of auxiliary basis functions  .... 493
   RIJ-COSX (HFX calculated with COS-X)).... on


General Settings:
 Integral files         IntName         .... PbMACl3_mp2_md_2.orca
 Hartree-Fock type      HFTyp           .... RHF
 Total Charge           Charge          ....    0
 Multiplicity           Mult            ....    1
 Number of Electrons    NEL             ....   92
 Basis Dimension        Dim             ....  259
 Nuclear Repulsion      ENuc            ....    601.5806761477 Eh

Convergence Acceleration:
 DIIS                   CNVDIIS         .... on
   Start iteration      DIISMaxIt       ....     0
   Startup error        DIISStart       ....  0.200000
   # of expansion vecs  DIISMaxEq       ....     5
   Bias factor          DIISBfac        ....   1.050
   Max. coefficient     DIISMaxC        ....  10.000
 Newton-Raphson         CNVNR           .... off
 SOSCF                  CNVSOSCF        .... on
   Start iteration      SOSCFMaxIt      ....   150
   Startup grad/error   SOSCFStart      ....  0.001000
 Level Shifting         CNVShift        .... on
   Level shift para.    LevelShift      ....    0.2500
   Turn off err/grad.   ShiftErr        ....    0.0000
 Zerner damping         CNVZerner       .... off
 Static damping         CNVDamp         .... on
   Fraction old density DampFac         ....    0.8500
   Max. Damping (<1)    DampMax         ....    0.9800
   Min. Damping (>=0)   DampMin         ....    0.0000
   Turn off err/grad.   DampErr         ....    0.0300
 Fernandez-Rico         CNVRico         .... off

SCF Procedure:
 Maximum # iterations   MaxIter         ....   125
 SCF integral mode      SCFMode         .... Direct
   Integral package                     .... LIBINT
 Reset frequeny         DirectResetFreq ....    20
 Integral Threshold     Thresh          ....  2.500e-11 Eh
 Primitive CutOff       TCut            ....  2.500e-12 Eh

Convergence Tolerance:
 Convergence Check Mode ConvCheckMode   .... Total+1el-Energy
 Energy Change          TolE            ....  1.000e-08 Eh
 1-El. energy change                    ....  1.000e-05 Eh
 Orbital Gradient       TolG            ....  1.000e-05
 Orbital Rotation angle TolX            ....  1.000e-05
 DIIS Error             TolErr          ....  5.000e-07


Diagonalization of the overlap matrix:
Smallest eigenvalue                        ... 6.945e-04
Time for diagonalization                   ...    0.078 sec
Threshold for overlap eigenvalues          ... 1.000e-08
Number of eigenvalues below threshold      ... 0
Time for construction of square roots      ...    0.008 sec
Total time needed                          ...    0.086 sec

---------------------
INITIAL GUESS: MOREAD
---------------------
Guess MOs are being read from file: previous.gbw
Input geometry compatible with but different from current geometry
Input basis set matches current basis set (good)
MOs were renormalized
MOs were reorthogonalized (Schmidt)
                      ------------------
                      INITIAL GUESS DONE (   0.2 sec)
                      ------------------
-------------------
DFT GRID GENERATION
-------------------

General Integration Accuracy     IntAcc      ...  5.010
Radial Grid Type                 RadialGrid  ... Gauss-Chebyshev
Angular Grid (max. acc.)         AngularGrid ... Lebedev-434
Angular grid pruning method      GridPruning ... 3 (G Style)
Weight generation scheme         WeightScheme... Becke
Basis function cutoff            BFCut       ...    1.0000e-11
Integration weight cutoff        WCut        ...    1.0000e-14
Grids for H and He will be reduced by one unit

# of grid points (after initial pruning)     ... 115882 (   0.1 sec)
# of grid points (after weights+screening)   ... 108465 (   0.4 sec)
nearest neighbour list constructed           ...    0.0 sec
Grid point re-assignment to atoms done       ...    0.0 sec
Grid point division into batches done        ...    1.1 sec
Reduced shell lists constructed in    3.3 sec

Total number of grid points                  ...   108465
Total number of batches                      ...     1700
Average number of points per batch           ...       63
Average number of grid points per atom       ...     9039
Average number of shells per batch           ...    54.86 (54.31%)
Average number of basis functions per batch  ...   145.00 (55.99%)
Average number of large shells per batch     ...    41.57 (75.78%)
Average number of large basis fcns per batch ...   107.56 (74.18%)
Maximum spatial batch extension              ...  31.45, 33.43, 32.96 au
Average spatial batch extension              ...   2.40,  2.40,  2.48 au

Time for grid setup =    3.787 sec

--------------------
COSX GRID GENERATION
--------------------

General Integration Accuracy     IntAcc      ...  3.340
Radial Grid Type                 RadialGrid  ... Gauss-Chebyshev
Angular Grid (max. acc.)         AngularGrid ... Lebedev-50
Angular grid pruning method      GridPruning ... 3 (G Style)
Weight generation scheme         WeightScheme... Becke
Basis function cutoff            BFCut       ...    1.0000e-11
Integration weight cutoff        WCut        ...    1.0000e-14
Grids for H and He will be reduced by one unit

# of grid points (after initial pruning)     ...   6578 (   0.0 sec)
# of grid points (after weights+screening)   ...   6243 (   0.0 sec)
nearest neighbour list constructed           ...    0.0 sec
Grid point re-assignment to atoms done       ...    0.0 sec
Grid point division into batches done        ...    0.0 sec
Reduced shell lists constructed in    0.1 sec

Total number of grid points                  ...     6243
Total number of batches                      ...      102
Average number of points per batch           ...       61
Average number of grid points per atom       ...      520
Average number of shells per batch           ...    66.37 (65.71%)
Average number of basis functions per batch  ...   178.16 (68.79%)
Average number of large shells per batch     ...    51.78 (78.01%)
Average number of large basis fcns per batch ...   136.22 (76.46%)
Maximum spatial batch extension              ...  25.63, 26.83, 36.53 au
Average spatial batch extension              ...   6.30,  6.42,  6.67 au

Overlap Fitting                  UseSFitting ... on
Constructing numerical overlap ... done (      0.1 sec)
Inverting numerical overlap    ... done (      0.0 sec)
Obtaining analytic overlap     ... done (      0.0 sec)
Final contraction and storage  ... done (      0.0 sec)


General Integration Accuracy     IntAcc      ...  3.670
Radial Grid Type                 RadialGrid  ... Gauss-Chebyshev
Angular Grid (max. acc.)         AngularGrid ... Lebedev-50
Angular grid pruning method      GridPruning ... 3 (G Style)
Weight generation scheme         WeightScheme... Becke
Basis function cutoff            BFCut       ...    1.0000e-11
Integration weight cutoff        WCut        ...    1.0000e-14
Grids for H and He will be reduced by one unit

# of grid points (after initial pruning)     ...   8124 (   0.0 sec)
# of grid points (after weights+screening)   ...   7690 (   0.0 sec)
nearest neighbour list constructed           ...    0.0 sec
Grid point re-assignment to atoms done       ...    0.0 sec
Grid point division into batches done        ...    0.0 sec
Reduced shell lists constructed in    0.2 sec

Total number of grid points                  ...     7690
Total number of batches                      ...      126
Average number of points per batch           ...       61
Average number of grid points per atom       ...      641
Average number of shells per batch           ...    65.52 (64.87%)
Average number of basis functions per batch  ...   175.60 (67.80%)
Average number of large shells per batch     ...    51.32 (78.33%)
Average number of large basis fcns per batch ...   134.74 (76.73%)
Maximum spatial batch extension              ...  26.59, 28.12, 37.97 au
Average spatial batch extension              ...   5.89,  5.91,  6.38 au

Overlap Fitting                  UseSFitting ... on
Constructing numerical overlap ... done (      0.1 sec)
Inverting numerical overlap    ... done (      0.0 sec)
Obtaining analytic overlap     ... done (      0.0 sec)
Final contraction and storage  ... done (      0.0 sec)


General Integration Accuracy     IntAcc      ...  4.010
Radial Grid Type                 RadialGrid  ... Gauss-Chebyshev
Angular Grid (max. acc.)         AngularGrid ... Lebedev-110
Angular grid pruning method      GridPruning ... 3 (G Style)
Weight generation scheme         WeightScheme... Becke
Basis function cutoff            BFCut       ...    1.0000e-11
Integration weight cutoff        WCut        ...    1.0000e-14
Grids for H and He will be reduced by one unit

# of grid points (after initial pruning)     ...  15170 (   0.0 sec)
# of grid points (after weights+screening)   ...  14397 (   0.0 sec)
nearest neighbour list constructed           ...    0.0 sec
Grid point re-assignment to atoms done       ...    0.0 sec
Grid point division into batches done        ...    0.0 sec
Reduced shell lists constructed in    0.3 sec

Total number of grid points                  ...    14397
Total number of batches                      ...      231
Average number of points per batch           ...       62
Average number of grid points per atom       ...     1200
Average number of shells per batch           ...    62.44 (61.83%)
Average number of basis functions per batch  ...   166.99 (64.47%)
Average number of large shells per batch     ...    48.37 (77.46%)
Average number of large basis fcns per batch ...   127.03 (76.07%)
Maximum spatial batch extension              ...  29.47, 28.61, 39.26 au
Average spatial batch extension              ...   4.83,  4.85,  5.15 au

Overlap Fitting                  UseSFitting ... on
Constructing numerical overlap ... done (      0.2 sec)
Inverting numerical overlap    ... done (      0.0 sec)
Obtaining analytic overlap     ... done (      0.0 sec)
Final contraction and storage  ... done (      0.0 sec)

Time for X-Grid setup             =    1.188 sec
--------------
SCF ITERATIONS
--------------
ITER       Energy         Delta-E        Max-DP      RMS-DP      [F,P]     Damp
               ***  Starting incremental Fock matrix formation  ***
  0  -1663.0748739013   0.000000000000 0.13982284  0.00247647  0.5575650 0.8500
  1  -1663.9328268375  -0.857952936251 0.12238595  0.00216682  0.4681341 0.8500
                               ***Turning on DIIS***
  2  -1664.6375860754  -0.704759237831 0.09897734  0.00184167  0.3981179 0.8500
  3  -1665.2321574025  -0.594571327072 0.07808551  0.00156258  0.3385457 0.8500
  4  -1665.7465780947  -0.514420692241 0.06331093  0.00134334  0.2878467 0.8500
  5  -1666.1910191247  -0.444441030055 0.05269368  0.00116367  0.2447116 0.8500
  6  -1666.5769615247  -0.385942399962 0.04484284  0.00100586  0.2080245 0.8500
  7  -1666.9131895938  -0.336228069089 0.03865565  0.00086510  0.1768311 0.8500
  8  -1667.2057364506  -0.292546856851 0.03343352  0.00074040  0.1503136 0.8500
  9  -1667.4588390194  -0.253102568734 0.02865482  0.00063169  0.1277723 0.8500
 10  -1667.6768997474  -0.218060727978 0.02434050  0.00053844  0.1086110 0.8500
 11  -1667.8643989749  -0.187499227565 0.02063331  0.00045893  0.0923232 0.8500
 12  -1668.0254107029  -0.161011727926 0.01752193  0.00039116  0.0784778 0.8500
 13  -1668.1634968366  -0.138086133741 0.01490925  0.00033327  0.0667086 0.8500
 14  -1668.2817567352  -0.118259898562 0.01268812  0.00028380  0.0567042 0.8500
 15  -1668.3829105843  -0.101153849141 0.01078723  0.00024160  0.0482000 0.8500
 16  -1668.4693475369  -0.086436952560 0.00916524  0.00020568  0.0409712 0.8500
 17  -1668.5431512310  -0.073803694100 0.00778800  0.00017510  0.0348265 0.8500
 18  -1668.6061268401  -0.062975609182 0.04413688  0.00099380  0.0296034 0.0000
                      *** Initiating the SOSCF procedure ***
                           *** Shutting down DIIS ***
                      *** Re-Reading the Fockian *** 
                      *** Removing any level shift *** 
ITER      Energy       Delta-E        Grad      Rot      Max-DP    RMS-DP
 19  -1668.96725462  -0.3611277766  0.000321  0.000321  0.000492  0.000011
               *** Restarting incremental Fock matrix formation ***
 20  -1668.96737829  -0.0001236705  0.000114  0.000363  0.000329  0.000011
 21  -1668.96737909  -0.0000007991  0.000122  0.000090  0.000173  0.000004
 22  -1668.96737944  -0.0000003535  0.000010  0.000019  0.000042  0.000001
 23  -1668.96737945  -0.0000000075  0.000004  0.000007  0.000011  0.000000
                  ***Gradient check signals convergence***
              ***Rediagonalizing the Fockian in SOSCF/NRSCF***

               *****************************************************
               *                     SUCCESS                       *
               *           SCF CONVERGED AFTER  24 CYCLES          *
               *****************************************************

Old exchange energy                            =    -59.267497789 Eh
New exchange energy                            =    -59.270513250 Eh
Exchange energy change after final integration =     -0.003015461 Eh
Total energy after final integration           =  -1668.970394900 Eh
Final COS-X integration done in                =    17.323 sec

----------------
TOTAL SCF ENERGY
----------------

Total Energy       :        -1668.97039490 Eh          -45414.99330 eV

Components:
Nuclear Repulsion  :          601.58067615 Eh           16369.84242 eV
Electronic Energy  :        -2270.55107105 Eh          -61784.83572 eV

One Electron Energy:        -3574.35360497 Eh          -97263.10635 eV
Two Electron Energy:         1303.80253393 Eh           35478.27063 eV

Virial components:
Potential Energy   :        -3207.29431084 Eh          -87274.91517 eV
Kinetic Energy     :         1538.32391594 Eh           41859.92187 eV
Virial Ratio       :            2.08492781


DFT components:
N(Alpha)           :       46.000019565223 electrons
N(Beta)            :       46.000019565223 electrons
N(Total)           :       92.000039130447 electrons
E(X)               :      -52.631679091713 Eh       
E(C)               :       -2.615220281580 Eh       
E(XC)              :      -55.246899373293 Eh       

---------------
SCF CONVERGENCE
---------------

  Last Energy change         ...    8.2675e-09  Tolerance :   1.0000e-08
  Last MAX-Density change    ...    2.3356e-13  Tolerance :   1.0000e-07
  Last RMS-Density change    ...    1.2446e-15  Tolerance :   5.0000e-09
  Last Orbital Gradient      ...    1.3891e-06  Tolerance :   1.0000e-05
  Last Orbital Rotation      ...    3.8212e-06  Tolerance :   1.0000e-05

             **** THE GBW FILE WAS UPDATED (PbMACl3_mp2_md_2.orca.gbw) ****
             **** DENSITY FILE WAS UPDATED (PbMACl3_mp2_md_2.orca.scfp.tmp) ****
             **** ENERGY FILE WAS UPDATED (PbMACl3_mp2_md_2.orca.en.tmp) ****
----------------
ORBITAL ENERGIES
----------------

  NO   OCC          E(Eh)            E(eV) 
   0   2.0000    -102.874222     -2799.3499 
   1   2.0000    -102.831258     -2798.1808 
   2   2.0000    -102.822513     -2797.9428 
   3   2.0000     -14.989213      -407.8772 
   4   2.0000     -10.703444      -291.2555 
   5   2.0000      -9.885934      -269.0099 
   6   2.0000      -9.840047      -267.7613 
   7   2.0000      -9.829867      -267.4843 
   8   2.0000      -7.522345      -204.6934 
   9   2.0000      -7.521303      -204.6650 
  10   2.0000      -7.520603      -204.6460 
  11   2.0000      -7.477009      -203.4598 
  12   2.0000      -7.475221      -203.4111 
  13   2.0000      -7.475049      -203.4064 
  14   2.0000      -7.467029      -203.1882 
  15   2.0000      -7.465030      -203.1338 
  16   2.0000      -7.464910      -203.1305 
  17   2.0000      -5.773537      -157.1059 
  18   2.0000      -3.546140       -96.4954 
  19   2.0000      -3.544017       -96.4376 
  20   2.0000      -3.542786       -96.4041 
  21   2.0000      -1.186254       -32.2796 
  22   2.0000      -0.965289       -26.2669 
  23   2.0000      -0.947351       -25.7787 
  24   2.0000      -0.942058       -25.6347 
  25   2.0000      -0.935205       -25.4482 
  26   2.0000      -0.933681       -25.4067 
  27   2.0000      -0.904493       -24.6125 
  28   2.0000      -0.875683       -23.8285 
  29   2.0000      -0.848348       -23.0847 
  30   2.0000      -0.834710       -22.7136 
  31   2.0000      -0.720912       -19.6170 
  32   2.0000      -0.716763       -19.5041 
  33   2.0000      -0.612919       -16.6784 
  34   2.0000      -0.556694       -15.1484 
  35   2.0000      -0.523486       -14.2448 
  36   2.0000      -0.520257       -14.1569 
  37   2.0000      -0.403573       -10.9818 
  38   2.0000      -0.391403       -10.6506 
  39   2.0000      -0.388632       -10.5752 
  40   2.0000      -0.358233        -9.7480 
  41   2.0000      -0.337216        -9.1761 
  42   2.0000      -0.331085        -9.0093 
  43   2.0000      -0.320056        -8.7092 
  44   2.0000      -0.316363        -8.6087 
  45   2.0000      -0.249843        -6.7986 
  46   0.0000      -0.010193        -0.2774 
  47   0.0000       0.003282         0.0893 
  48   0.0000       0.051521         1.4020 
  49   0.0000       0.059519         1.6196 
  50   0.0000       0.063354         1.7239 
  51   0.0000       0.088956         2.4206 
  52   0.0000       0.108672         2.9571 
  53   0.0000       0.126227         3.4348 
  54   0.0000       0.141222         3.8429 
  55   0.0000       0.154448         4.2027 
  56   0.0000       0.158434         4.3112 
  57   0.0000       0.174628         4.7519 
  58   0.0000       0.178591         4.8597 
  59   0.0000       0.222760         6.0616 
  60   0.0000       0.232981         6.3397 
  61   0.0000       0.236317         6.4305 
  62   0.0000       0.258854         7.0438 
  63   0.0000       0.277724         7.5573 
  64   0.0000       0.280249         7.6260 
  65   0.0000       0.295478         8.0404 
  66   0.0000       0.305334         8.3086 
  67   0.0000       0.320779         8.7288 
  68   0.0000       0.342065         9.3081 
  69   0.0000       0.371120        10.0987 
  70   0.0000       0.388545        10.5728 
  71   0.0000       0.416519        11.3341 
  72   0.0000       0.422635        11.5005 
  73   0.0000       0.435907        11.8616 
  74   0.0000       0.445290        12.1170 
  75   0.0000       0.448452        12.2030 
  76   0.0000       0.453438        12.3387 
  77   0.0000       0.468351        12.7445 
  78   0.0000       0.472759        12.8644 
  79   0.0000       0.477152        12.9840 
  80   0.0000       0.484201        13.1758 
  81   0.0000       0.487784        13.2733 
  82   0.0000       0.503206        13.6929 
  83   0.0000       0.512233        13.9386 
  84   0.0000       0.529100        14.3975 
  85   0.0000       0.538747        14.6601 
  86   0.0000       0.544072        14.8050 
  87   0.0000       0.553250        15.0547 
  88   0.0000       0.560179        15.2432 
  89   0.0000       0.579333        15.7645 
  90   0.0000       0.583404        15.8752 
  91   0.0000       0.595245        16.1974 
  92   0.0000       0.601298        16.3621 
  93   0.0000       0.610078        16.6011 
  94   0.0000       0.620969        16.8974 
  95   0.0000       0.627055        17.0630 
  96   0.0000       0.652160        17.7462 
  97   0.0000       0.659590        17.9484 
  98   0.0000       0.679831        18.4991 
  99   0.0000       0.708756        19.2862 
 100   0.0000       0.732836        19.9415 
 101   0.0000       0.749282        20.3890 
 102   0.0000       0.761395        20.7186 
 103   0.0000       0.800511        21.7830 
 104   0.0000       0.820179        22.3182 
 105   0.0000       0.864399        23.5215 
 106   0.0000       0.870313        23.6824 
 107   0.0000       0.889195        24.1962 
 108   0.0000       0.904563        24.6144 
 109   0.0000       0.910839        24.7852 
 110   0.0000       0.930449        25.3188 
 111   0.0000       0.945468        25.7275 
 112   0.0000       0.954933        25.9851 
 113   0.0000       0.969395        26.3786 
 114   0.0000       0.974613        26.5206 
 115   0.0000       1.005311        27.3559 
 116   0.0000       1.040322        28.3086 
 117   0.0000       1.093515        29.7561 
 118   0.0000       1.099294        29.9133 
 119   0.0000       1.106782        30.1171 
 120   0.0000       1.119052        30.4510 
 121   0.0000       1.129205        30.7272 
 122   0.0000       1.187019        32.3004 
 123   0.0000       1.208266        32.8786 
 124   0.0000       1.241570        33.7848 
 125   0.0000       1.258289        34.2398 
 126   0.0000       1.292745        35.1774 
 127   0.0000       1.344258        36.5791 
 128   0.0000       1.359393        36.9910 
 129   0.0000       1.387778        37.7634 
 130   0.0000       1.435310        39.0568 
 131   0.0000       1.542635        41.9772 
 132   0.0000       1.549154        42.1546 
 133   0.0000       1.577750        42.9328 
 134   0.0000       1.610480        43.8234 
 135   0.0000       1.640680        44.6452 
 136   0.0000       1.755447        47.7681 
 137   0.0000       1.768564        48.1251 
 138   0.0000       1.777232        48.3609 
 139   0.0000       1.873424        50.9785 
 140   0.0000       1.881956        51.2106 
 141   0.0000       1.884254        51.2732 
 142   0.0000       1.932614        52.5891 
 143   0.0000       1.946193        52.9586 
 144   0.0000       1.954721        53.1907 
 145   0.0000       1.967887        53.5489 
 146   0.0000       1.972399        53.6717 
 147   0.0000       1.985430        54.0263 
 148   0.0000       1.993169        54.2369 
 149   0.0000       1.999914        54.4204 
 150   0.0000       2.010931        54.7202 
 151   0.0000       2.021304        55.0025 
 152   0.0000       2.026218        55.1362 
 153   0.0000       2.057881        55.9978 
 154   0.0000       2.075012        56.4639 
 155   0.0000       2.094292        56.9886 
 156   0.0000       2.097850        57.0854 
 157   0.0000       2.118335        57.6428 
 158   0.0000       2.132859        58.0381 
 159   0.0000       2.133872        58.0656 
 160   0.0000       2.143561        58.3293 
 161   0.0000       2.149461        58.4898 
 162   0.0000       2.157696        58.7139 
 163   0.0000       2.170514        59.0627 
 164   0.0000       2.177359        59.2489 
 165   0.0000       2.187435        59.5231 
 166   0.0000       2.203788        59.9681 
 167   0.0000       2.227519        60.6139 
 168   0.0000       2.241995        61.0078 
 169   0.0000       2.250085        61.2279 
 170   0.0000       2.257848        61.4392 
 171   0.0000       2.263648        61.5970 
 172   0.0000       2.271869        61.8207 
 173   0.0000       2.283461        62.1361 
 174   0.0000       2.285713        62.1974 
 175   0.0000       2.286463        62.2178 
 176   0.0000       2.295667        62.4683 
 177   0.0000       2.313502        62.9536 
 178   0.0000       2.320547        63.1453 
 179   0.0000       2.364731        64.3476 
 180   0.0000       2.375885        64.6511 
 181   0.0000       2.390000        65.0352 
 182   0.0000       2.393726        65.1366 
 183   0.0000       2.411101        65.6094 
 184   0.0000       2.415764        65.7363 
 185   0.0000       2.424622        65.9773 
 186   0.0000       2.439737        66.3886 
 187   0.0000       2.441102        66.4258 
 188   0.0000       2.445832        66.5545 
 189   0.0000       2.449095        66.6433 
 190   0.0000       2.469019        67.1854 
 191   0.0000       2.491564        67.7989 
 192   0.0000       2.496281        67.9273 
 193   0.0000       2.512193        68.3603 
 194   0.0000       2.542651        69.1890 
 195   0.0000       2.545682        69.2715 
 196   0.0000       2.581421        70.2440 
 197   0.0000       2.595432        70.6253 
 198   0.0000       2.610241        71.0283 
 199   0.0000       2.618232        71.2457 
 200   0.0000       2.656994        72.3005 
 201   0.0000       2.702766        73.5460 
 202   0.0000       2.719937        74.0132 
 203   0.0000       2.735503        74.4368 
 204   0.0000       2.754544        74.9549 
 205   0.0000       2.820029        76.7369 
 206   0.0000       2.836004        77.1716 
 207   0.0000       2.844409        77.4003 
 208   0.0000       2.884777        78.4988 
 209   0.0000       2.923067        79.5407 
 210   0.0000       2.984990        81.2257 
 211   0.0000       3.040856        82.7459 
 212   0.0000       3.082133        83.8691 
 213   0.0000       3.159527        85.9751 
 214   0.0000       3.207520        87.2811 
 215   0.0000       3.243322        88.2553 
 216   0.0000       3.384532        92.0978 
 217   0.0000       3.426153        93.2304 
 218   0.0000       3.538644        96.2914 
 219   0.0000       3.593749        97.7909 
 220   0.0000       3.603933        98.0680 
 221   0.0000       3.697604       100.6169 
 222   0.0000       3.869937       105.3063 
 223   0.0000       3.887927       105.7959 
 224   0.0000       3.960350       107.7666 
 225   0.0000       4.195402       114.1627 
 226   0.0000       4.253603       115.7464 
 227   0.0000       4.440270       120.8259 
 228   0.0000       4.503621       122.5498 
 229   0.0000       4.836165       131.5987 
 230   0.0000       4.874048       132.6296 
 231   0.0000       4.934842       134.2839 
 232   0.0000       4.952668       134.7689 
 233   0.0000       5.071699       138.0079 
 234   0.0000       5.143849       139.9712 
 235   0.0000       5.160848       140.4338 
 236   0.0000       5.299756       144.2137 
 237   0.0000       5.495602       149.5429 
 238   0.0000       5.546332       150.9234 
 239   0.0000       5.926257       161.2616 
 240   0.0000      11.045653       300.5675 
 241   0.0000      11.077543       301.4353 
 242   0.0000      11.091409       301.8126 
 243   0.0000      11.097839       301.9876 
 244   0.0000      11.138031       303.0812 
 245   0.0000      11.181247       304.2572 
 246   0.0000      11.221681       305.3575 
 247   0.0000      11.238492       305.8149 
 248   0.0000      11.271605       306.7160 
 249   0.0000      22.735640       618.6682 
 250   0.0000      25.247091       687.0083 
 251   0.0000      25.312671       688.7928 
 252   0.0000      25.446538       692.4355 
 253   0.0000      32.341874       880.0671 
 254   0.0000      35.620077       969.2716 
 255   0.0000      35.810512       974.4536 
 256   0.0000      35.869857       976.0684 
 257   0.0000      35.962053       978.5772 
 258   0.0000     123.662529      3365.0285 

                    ********************************
                    * MULLIKEN POPULATION ANALYSIS *
                    ********************************

-----------------------
MULLIKEN ATOMIC CHARGES
-----------------------
   0 C :   -0.353074
   1 N :   -0.267118
   2 H :    0.280415
   3 H :    0.295059
   4 H :    0.281872
   5 H :    0.191897
   6 H :    0.161538
   7 H :    0.198430
   8 Pb:    0.831111
   9 Cl:   -0.556967
  10 Cl:   -0.529669
  11 Cl:   -0.533493
Sum of atomic charges:   -0.0000000

--------------------------------
MULLIKEN REDUCED ORBITAL CHARGES
--------------------------------
  0 C s       :     3.297713  s :     3.297713
      pz      :     1.043419  p :     2.974816
      px      :     1.065632
      py      :     0.865765
      dz2     :     0.017980  d :     0.074227
      dxz     :     0.006938
      dyz     :     0.017004
      dx2y2   :     0.020704
      dxy     :     0.011601
      f0      :     0.001070  f :     0.006318
      f+1     :     0.000555
      f-1     :     0.000778
      f+2     :     0.000815
      f-2     :     0.000911
      f+3     :     0.001286
      f-3     :     0.000904
  1 N s       :     3.402041  s :     3.402041
      pz      :     1.230269  p :     3.814706
      px      :     1.355168
      py      :     1.229269
      dz2     :     0.014345  d :     0.047955
      dxz     :     0.004022
      dyz     :     0.006677
      dx2y2   :     0.016275
      dxy     :     0.006636
      f0      :     0.000632  f :     0.002416
      f+1     :     0.000268
      f-1     :     0.000236
      f+2     :     0.000250
      f-2     :     0.000156
      f+3     :     0.000607
      f-3     :     0.000267
  2 H s       :     0.685233  s :     0.685233
      pz      :     0.020805  p :     0.034352
      px      :     0.007477
      py      :     0.006070
  3 H s       :     0.646047  s :     0.646047
      pz      :     0.011156  p :     0.058894
      px      :     0.039436
      py      :     0.008302
  4 H s       :     0.683581  s :     0.683581
      pz      :     0.008242  p :     0.034547
      px      :     0.008408
      py      :     0.017896
  5 H s       :     0.784169  s :     0.784169
      pz      :     0.005040  p :     0.023934
      px      :     0.004394
      py      :     0.014500
  6 H s       :     0.816484  s :     0.816484
      pz      :     0.004098  p :     0.021979
      px      :     0.014511
      py      :     0.003370
  7 H s       :     0.777711  s :     0.777711
      pz      :     0.015409  p :     0.023858
      px      :     0.004331
      py      :     0.004118
  8 Pbs       :     3.928958  s :     3.928958
      pz      :     2.389984  p :     7.014639
      px      :     2.338907
      py      :     2.285748
      dz2     :     2.032139  d :    10.151024
      dxz     :     2.032479
      dyz     :     2.023591
      dx2y2   :     2.035676
      dxy     :     2.027138
      f0      :     0.007397  f :     0.074269
      f+1     :     0.006523
      f-1     :     0.010651
      f+2     :     0.013350
      f-2     :     0.008049
      f+3     :     0.013421
      f-3     :     0.014877
  9 Cls       :     5.951563  s :     5.951563
      pz      :     3.898198  p :    11.583716
      px      :     3.769686
      py      :     3.915831
      dz2     :     0.003320  d :     0.020685
      dxz     :     0.003952
      dyz     :     0.001643
      dx2y2   :     0.007392
      dxy     :     0.004379
      f0      :     0.000092  f :     0.001003
      f+1     :     0.000160
      f-1     :     0.000060
      f+2     :     0.000160
      f-2     :     0.000081
      f+3     :     0.000206
      f-3     :     0.000244
 10 Cls       :     5.949151  s :     5.949151
      pz      :     3.890673  p :    11.547469
      px      :     3.894502
      py      :     3.762294
      dz2     :     0.002731  d :     0.031235
      dxz     :     0.005565
      dyz     :     0.006203
      dx2y2   :     0.011238
      dxy     :     0.005498
      f0      :     0.000269  f :     0.001815
      f+1     :     0.000077
      f-1     :     0.000205
      f+2     :     0.000436
      f-2     :     0.000195
      f+3     :     0.000226
      f-3     :     0.000407
 11 Cls       :     5.949884  s :     5.949884
      pz      :     3.858630  p :    11.563777
      px      :     3.872975
      py      :     3.832172
      dz2     :     0.003218  d :     0.018856
      dxz     :     0.003502
      dyz     :     0.006863
      dx2y2   :     0.002058
      dxy     :     0.003215
      f0      :     0.000096  f :     0.000976
      f+1     :     0.000100
      f-1     :     0.000228
      f+2     :     0.000152
      f-2     :     0.000255
      f+3     :     0.000084
      f-3     :     0.000061


                     *******************************
                     * LOEWDIN POPULATION ANALYSIS *
                     *******************************

----------------------
LOEWDIN ATOMIC CHARGES
----------------------
   0 C :   -0.338143
   1 N :    0.119044
   2 H :    0.192106
   3 H :    0.070550
   4 H :    0.193733
   5 H :    0.126037
   6 H :    0.121839
   7 H :    0.126475
   8 Pb:   -0.154988
   9 Cl:   -0.186898
  10 Cl:   -0.066732
  11 Cl:   -0.203022

-------------------------------
LOEWDIN REDUCED ORBITAL CHARGES
-------------------------------
  0 C s       :     2.857858  s :     2.857858
      pz      :     1.079608  p :     3.127425
      px      :     1.069155
      py      :     0.978663
      dz2     :     0.073806  d :     0.314374
      dxz     :     0.027393
      dyz     :     0.069835
      dx2y2   :     0.089677
      dxy     :     0.053662
      f0      :     0.003759  f :     0.038486
      f+1     :     0.003867
      f-1     :     0.004698
      f+2     :     0.005850
      f-2     :     0.008085
      f+3     :     0.006749
      f-3     :     0.005477
  1 N s       :     2.974879  s :     2.974879
      pz      :     1.210441  p :     3.722211
      px      :     1.285244
      py      :     1.226526
      dz2     :     0.051738  d :     0.172672
      dxz     :     0.014961
      dyz     :     0.026448
      dx2y2   :     0.054456
      dxy     :     0.025068
      f0      :     0.001497  f :     0.011194
      f+1     :     0.001413
      f-1     :     0.001331
      f+2     :     0.001824
      f-2     :     0.001751
      f+3     :     0.001970
      f-3     :     0.001408
  2 H s       :     0.703191  s :     0.703191
      pz      :     0.060061  p :     0.104703
      px      :     0.025489
      py      :     0.019153
  3 H s       :     0.719274  s :     0.719274
      pz      :     0.036272  p :     0.210176
      px      :     0.148442
      py      :     0.025463
  4 H s       :     0.701973  s :     0.701973
      pz      :     0.025884  p :     0.104294
      px      :     0.027975
      py      :     0.050435
  5 H s       :     0.806076  s :     0.806076
      pz      :     0.015715  p :     0.067888
      px      :     0.014073
      py      :     0.038100
  6 H s       :     0.815036  s :     0.815036
      pz      :     0.013134  p :     0.063125
      px      :     0.039171
      py      :     0.010820
  7 H s       :     0.805081  s :     0.805081
      pz      :     0.043332  p :     0.068444
      px      :     0.013604
      py      :     0.011507
  8 Pbs       :     3.677016  s :     3.677016
      pz      :     2.527254  p :     7.529690
      px      :     2.509208
      py      :     2.493229
      dz2     :     2.119368  d :    10.710345
      dxz     :     2.124647
      dyz     :     2.137104
      dx2y2   :     2.192878
      dxy     :     2.136349
      f0      :     0.021545  f :     0.237937
      f+1     :     0.019587
      f-1     :     0.034348
      f+2     :     0.040941
      f-2     :     0.027340
      f+3     :     0.041713
      f-3     :     0.052462
  9 Cls       :     5.728760  s :     5.728760
      pz      :     3.838624  p :    11.413212
      px      :     3.731138
      py      :     3.843450
      dz2     :     0.007947  d :     0.042488
      dxz     :     0.004949
      dyz     :     0.002353
      dx2y2   :     0.019245
      dxy     :     0.007995
      f0      :     0.000174  f :     0.002438
      f+1     :     0.000486
      f-1     :     0.000114
      f+2     :     0.000298
      f-2     :     0.000119
      f+3     :     0.000583
      f-3     :     0.000665
 10 Cls       :     5.672686  s :     5.672686
      pz      :     3.826733  p :    11.319332
      px      :     3.777244
      py      :     3.715355
      dz2     :     0.006140  d :     0.069829
      dxz     :     0.010494
      dyz     :     0.014587
      dx2y2   :     0.030973
      dxy     :     0.007635
      f0      :     0.000730  f :     0.004885
      f+1     :     0.000109
      f-1     :     0.000414
      f+2     :     0.001290
      f-2     :     0.000448
      f+3     :     0.000391
      f-3     :     0.001505
 11 Cls       :     5.741954  s :     5.741954
      pz      :     3.811432  p :    11.422558
      px      :     3.823161
      py      :     3.787965
      dz2     :     0.005208  d :     0.036295
      dxz     :     0.006494
      dyz     :     0.017367
      dx2y2   :     0.002551
      dxy     :     0.004675
      f0      :     0.000108  f :     0.002216
      f+1     :     0.000257
      f-1     :     0.000705
      f+2     :     0.000293
      f-2     :     0.000648
      f+3     :     0.000151
      f-3     :     0.000055


                      *****************************
                      * MAYER POPULATION ANALYSIS *
                      *****************************

  NA   - Mulliken gross atomic population
  ZA   - Total nuclear charge
  QA   - Mulliken gross atomic charge
  VA   - Mayer's total valence
  BVA  - Mayer's bonded valence
  FA   - Mayer's free valence

  ATOM       NA         ZA         QA         VA         BVA        FA
  0 C      6.3531     6.0000    -0.3531     3.7685     3.7685    -0.0000
  1 N      7.2671     7.0000    -0.2671     3.3023     3.3023     0.0000
  2 H      0.7196     1.0000     0.2804     0.9172     0.9172     0.0000
  3 H      0.7049     1.0000     0.2951     1.0194     1.0194    -0.0000
  4 H      0.7181     1.0000     0.2819     0.9185     0.9185     0.0000
  5 H      0.8081     1.0000     0.1919     0.9739     0.9739     0.0000
  6 H      0.8385     1.0000     0.1615     0.9722     0.9722    -0.0000
  7 H      0.8016     1.0000     0.1984     0.9789     0.9789    -0.0000
  8 Pb    21.1689    22.0000     0.8311     1.9263     1.9263    -0.0000
  9 Cl    17.5570    17.0000    -0.5570     0.7352     0.7352    -0.0000
 10 Cl    17.5297    17.0000    -0.5297     0.8038     0.8038    -0.0000
 11 Cl    17.5335    17.0000    -0.5335     0.7995     0.7995     0.0000

  Mayer bond orders larger than 0.1
B(  0-C ,  1-N ) :   0.8492 B(  0-C ,  5-H ) :   0.9573 B(  0-C ,  6-H ) :   0.9665 
B(  0-C ,  7-H ) :   0.9527 B(  1-N ,  2-H ) :   0.8987 B(  1-N ,  3-H ) :   0.7210 
B(  1-N ,  4-H ) :   0.9034 B(  3-H , 10-Cl) :   0.2914 B(  8-Pb,  9-Cl) :   0.6505 
B(  8-Pb, 10-Cl) :   0.4876 B(  8-Pb, 11-Cl) :   0.7783 

-------
TIMINGS
-------

Total SCF time: 0 days 0 hours 4 min 46 sec 

Total time                  ....     286.004 sec
Sum of individual times     ....     267.977 sec  ( 93.7%)

Fock matrix formation       ....     262.032 sec  ( 91.6%)
  Coulomb formation         ....     203.281 sec  ( 77.6% of F)
  Split-RI-J                ....      17.352 sec  (  6.6% of F)
  Chain of spheres X        ....     203.193 sec  ( 77.5% of F)
  COS-X 1 center corr.      ....       0.000 sec  (  0.0% of F)
  XC integration            ....      58.741 sec  ( 22.4% of F)
    Basis function eval.    ....      27.858 sec  ( 47.4% of XC)
    Density eval.           ....       9.815 sec  ( 16.7% of XC)
    XC-Functional eval.     ....       2.870 sec  (  4.9% of XC)
    XC-Potential eval.      ....      17.275 sec  ( 29.4% of XC)
Diagonalization             ....       0.478 sec  (  0.2%)
Density matrix formation    ....       0.036 sec  (  0.0%)
Population analysis         ....       0.059 sec  (  0.0%)
Initial guess               ....       0.230 sec  (  0.1%)
Orbital Transformation      ....       0.000 sec  (  0.0%)
Orbital Orthonormalization  ....       0.224 sec  (  0.1%)
DIIS solution               ....       0.103 sec  (  0.0%)
SOSCF solution              ....       0.063 sec  (  0.0%)
Grid generation             ....       4.975 sec  (  1.7%)

------------------------------------------------------------------------------
                              ORCA MP2 CALCULATION
------------------------------------------------------------------------------


----------------------
RI-MP2 ENERGY+GRADIENT
----------------------
Dimension of the basis                    ...  259
Memory devoted to MP2                     ... 1000 MB   
Data format for buffers                   ... DOUBLE
Compression type for matrix containers    ... UNCOMPRESSED
Overall scaling of the MP2 energy         ...   2.700e-01 Eh
Calculating two index integrals           ... done (    0.020 sec)
Cholesky decomposition of the V-matrix    ... done
Cholesky decomposition of V**-1           ... done (    0.041 sec)

-----------------
RI-TRANSFORMATION (AUX index driven)
-----------------

Dimension of the orbital-basis         ... 259
Dimension of the aux-basis             ... 493
Transformation of internal MOs         ...    0-  45
Transformation of internal/external MOs...    0-  45 to   46- 258
Number Format for Storage              ... Double (8 Byte)
Integral mode                          ... Direct

First Phase: integral generation and transformation of MO indices
  Aux angular momentum 0               ... done (    0.680 sec)
  Aux angular momentum 1               ... done (    0.375 sec)
  Aux angular momentum 2               ... done (    0.379 sec)
  Aux angular momentum 3               ... done (    0.216 sec)
  Aux angular momentum 4               ... done (    0.183 sec)
Closing buffer VIJ ( 0.00 GB; CompressionRatio= 1.95)
Closing buffer VIA ( 0.04 GB; CompressionRatio= 1.00)
  Phase 1 completed in     2.011 sec
Second Phase: sorting and transformation of aux index

IJ-Transformation
Memory available                       ... 990 MB 
Max. # MO pairs treated in a batch     ... 46    
# of internal orbitals                 ... 46
# batches for internal orbitals        ... 1
Closing buffer IJV ( 0.00 GB; CompressionRatio= 1.00)
(ij|v) transformation done in     0.098 sec

IA-Transformation
Memory available                       ... 990 MB 
Max. # MO pairs treated in a batch     ... 46    
# of internal orbitals                 ... 46
# batches for internal orbitals        ... 1
Closing buffer IAV ( 0.04 GB; CompressionRatio= 1.00)
(ia|v) transformation done in     0.259 sec

  Phase 2 completed in     0.400 sec
RI-Integral transformation completed in     2.412 sec
Opening buffers                              ... done

Starting loop over batches of integrals:

Operator 0  - window                       ... (  0- 45)x( 46-258)
Operator 0  - Memory available             ...  1000 MB
Operator 0  - Memory needed per MO         ...   1.6 MB
Operator 0  - Number of orbitals per batch ... 46
Operator 0  - Number of batches            ... 1

OPERATOR  0   PASS   0:  MOs     0 ...   45
  Reading integrals       ... ok
  Internal MO   2
  Internal MO   5
  Internal MO   8
  Internal MO  11
  Internal MO  14
  Internal MO  17
  Internal MO  20
  Internal MO  23
  Internal MO  26
  Internal MO  29
  Internal MO  32
  Internal MO  35
  Internal MO  38
  Internal MO  41
  Internal MO  44
Closing buffer GIPV ( 0.04 GB; CompressionRatio= 1.00)
Time spent in pair loops =    31.449 sec

-----------------------------------------------
 RI-MP2 CORRELATION ENERGY:     -0.581561316 Eh
-----------------------------------------------


---------------------
MP2 DENSITY FORMATION
---------------------

Completing the external part of the density      ... done
Storing the unrelaxed density                    ... done

Calculating the xc-kernel                        ... done
Calculating G(D)                                 ... done
Completing the Lagrangian                        ... done
Solving the Z-vector equations                   ... 

------------------------------------------------------------------------------
                           ORCA CP-SCF CALCULATION
------------------------------------------------------------------------------

Input orbitals are from        ... PbMACl3_mp2_md_2.orca.gbw
Input Perturbation             ... PbMACl3_mp2_md_2.orca.pin.tmp
Wavefunction output            ... PbMACl3_mp2_md_2.orca.pout.tmp
Perturbation mode              ... Real perturbation
Solver                         ... DIIS
   MaxDIIS                     ... 20
   Levelshift                  ...    3.000e-01 Eh
Max. number of iterations      ... 128
Convergence tolerance          ... 1.000e-08
Integral handling              ... Direct
COSX GridX                     ... 1
Number of perturbations        ... 1
Number of operators            ... 1
Orbital ranges used for CP-SCF:
 Operator 0:  Orbitals   0... 45  to  46...258
DFT calculation                         ... on
Exchange functional (SCF)               ... B88
Exchange functional (CP-SCF)            ... B88
   X-Alpha parameter    XAlpha (SCF)    ...  0.666667
   X-Alpha parameter    XAlpha (CP-SCF) ...  0.666667
   Becke's b parameter  XBeta (SCF)     ...  0.004200
   Becke's b parameter  XBeta (CP-SCF)  ...  0.004200
Correlation functional (SCF)            ... LYP
Correlation functional (CP-SCF)         ... LYP
 LDA part of GGA corr.  LDAOpt (SCF)    ... VWN-3
 LDA part of GGA corr.  LDAOpt (CP-SCF) ... VWN-3
Hybrid DFT                              ... on
   Exchange mixing (SCF)                ...  0.530
   Exchange mixing (CP-SCF)             ...  0.530
   GGA exch. scaling(SCF)               ...  0.470
   GGA exch. scaling (CP-SCF)           ...  0.470
   GGA corr. scaling (SCF)              ...  0.730
   GGA corr. scaling (CP-SCF)           ...  0.730
The RIJCOSX approximation is active
Variables per vector in CP-SCF ... 9798
Number of vectors sought       ... 1
Calculating the xc-kernel      ... done

Solving the CP-SCF equations by a DIIS algorithm

-----------------
CP-SCF ITERATIONS
-----------------
  Iteration   0: MaxR=  0.087399186
  Iteration   1: MaxR=  0.040954118
  Iteration   2: MaxR=  0.012373054
  Iteration   3: MaxR=  0.005427470
  Iteration   4: MaxR=  0.002874444
  Iteration   5: MaxR=  0.001227779
  Iteration   6: MaxR=  0.000493991
  Iteration   7: MaxR=  0.000152315
  Iteration   8: MaxR=  0.000059144
  Iteration   9: MaxR=  0.000019213
  Iteration  10: MaxR=  0.000008655
  Iteration  11: MaxR=  0.000003147
  Iteration  12: MaxR=  0.000001340
  Iteration  13: MaxR=  0.000000491
  Iteration  14: MaxR=  0.000000189
  Iteration  15: MaxR=  0.000000066
  Iteration  16: MaxR=  0.000000020
  Iteration  17: MaxR=  0.000000007
                              *** THE CP-SCF HAS CONVERGED *** 
done
Finalizing the relaxed density                   ... done
Transforming P to the AO basis                   ... done
Storing the relaxed density                      ... done

------------------------------------
ENERGY WEIGHTED DENSITY FINALIZATION
------------------------------------

Gathering the parts of the W-matrix              ... done
Forming the Z-density                            ... done
Transforming Z to the AO basis                   ... done
Calculating G(Z)                                 ... done
Finalizing the W-matrix                          ... done
Transforming W to the AO basis and storing       ... done
Entering the RIJONX and RIJCOSX sections
Starting the three-index derivative integrals:
Operator 0  - Memory available             ...  1000 MB
Operator 0  - Memory needed per MO         ...   1.0 MB
Operator 0  - Number of orbitals per batch ... 46
Operator 0  - Number of batches            ... 1

OPERATOR  0   PASS   0:  MOs     0 ...   45

----------------------------------
MP2 DERIVATIVE INTEGRAL GENERATION
----------------------------------


Input Correlated Electron Density   ... PbMACl3_mp2_md_2.orca.pmp2re
Input Energy Weighted Density       ... PbMACl3_mp2_md_2.orca.wmp2.tmp
Input SCF Electron Density          ... PbMACl3_mp2_md_2.orca.scfp.tmp

One-Electron Terms    ...
  ECP gradient                                           ... One-Electron Terms done

-----------------------------------------------------------
MP2 COSX Grid Generation
-----------------------------------------------------------

General Integration Accuracy     IntAcc      ...  4.340
Radial Grid Type                 RadialGrid  ... Gauss-Chebyshev
Angular Grid (max. acc.)         AngularGrid ... Lebedev-302
Angular grid pruning method      GridPruning ... 3 (G Style)
Weight generation scheme         WeightScheme... Becke
Basis function cutoff            BFCut       ...    1.0000e-11
Integration weight cutoff        WCut        ...    1.0000e-14
Grids for H and He will be reduced by one unit

# of grid points (after initial pruning)     ...  57718 (   0.0 sec)
# of grid points (after weights+screening)   ...  54217 (   0.1 sec)
nearest neighbour list constructed           ...    0.0 sec
Grid point re-assignment to atoms done       ...    0.0 sec
Grid point division into batches done        ...    0.2 sec
Reduced shell lists constructed in    1.3 sec

Total number of grid points                  ...    54217
Total number of batches                      ...      853
Average number of points per batch           ...       63
Average number of grid points per atom       ...     4518
Average number of shells per batch           ...    56.70 (56.14%)
Average number of basis functions per batch  ...   150.32 (58.04%)
Average number of large shells per batch     ...    43.10 (76.02%)
Average number of large basis fcns per batch ...   112.25 (74.67%)
Maximum spatial batch extension              ...  31.46, 29.79, 31.89 au
Average spatial batch extension              ...   3.00,  3.03,  3.18 au

Overlap Fitting                  UseSFitting ... on
Two electron COSX terms .... 
Integration Timings:
Total Time                  =    72.5 sec
Basis fcn evaluation        =     0.6 sec
Density evaluation          =     0.6 sec
Integral evaluation         =    70.1 sec
K(P) evaluation             =     0.4 sec
                          .... COSX two electron terms done
COSX two-electron contribution to the gradient
     0:    -0.021497     0.062277     0.038683
     1:    -0.014427    -0.085219    -0.058674
     2:     0.038793    -0.007012     0.209658
     3:    -0.145007    -0.006339    -0.009983
     4:     0.071074     0.184934    -0.085965
     5:    -0.047672    -0.150282     0.060870
     6:     0.167944     0.003371     0.007138
     7:    -0.040070    -0.012246    -0.163735
     8:    -0.010163     0.033813    -0.030506
     9:     0.059793    -0.009600    -0.015250
    10:    -0.021361     0.039807    -0.005877
    11:    -0.036803    -0.052697     0.053826
Exchange-correlation gradient    ... done
Dispersion correction            ... 
Entering the calculation of the dispersion correction...

Checking the input atom types...

Done
done

                *********************************************
                * UNRELAXED MP2 DENSITY POPULATION ANALYSIS *
                *********************************************

------------------------------------------------------------------------------
                           ORCA POPULATION ANALYSIS
------------------------------------------------------------------------------
Input electron density              ... PbMACl3_mp2_md_2.orca.pmp2ur
BaseName (.gbw .S,...)              ... PbMACl3_mp2_md_2.orca

                    ********************************
                    * MULLIKEN POPULATION ANALYSIS *
                    ********************************

-----------------------
MULLIKEN ATOMIC CHARGES
-----------------------
   0 C :   -0.358224
   1 N :   -0.266307
   2 H :    0.280571
   3 H :    0.293818
   4 H :    0.282060
   5 H :    0.192563
   6 H :    0.162617
   7 H :    0.199026
   8 Pb:    0.815744
   9 Cl:   -0.550631
  10 Cl:   -0.524370
  11 Cl:   -0.526867
Sum of atomic charges:   -0.0000000

--------------------------------
MULLIKEN REDUCED ORBITAL CHARGES
--------------------------------
  0 C s       :     3.296559  s :     3.296559
      pz      :     1.041351  p :     2.970764
      px      :     1.064212
      py      :     0.865201
      dz2     :     0.019792  d :     0.083434
      dxz     :     0.009037
      dyz     :     0.018721
      dx2y2   :     0.022492
      dxy     :     0.013393
      f0      :     0.001224  f :     0.007467
      f+1     :     0.000722
      f-1     :     0.000964
      f+2     :     0.000982
      f-2     :     0.001058
      f+3     :     0.001430
      f-3     :     0.001085
  1 N s       :     3.399964  s :     3.399964
      pz      :     1.227428  p :     3.804273
      px      :     1.351069
      py      :     1.225777
      dz2     :     0.016358  d :     0.058599
      dxz     :     0.006240
      dyz     :     0.008753
      dx2y2   :     0.018437
      dxy     :     0.008810
      f0      :     0.000775  f :     0.003471
      f+1     :     0.000418
      f-1     :     0.000391
      f+2     :     0.000400
      f-2     :     0.000303
      f+3     :     0.000759
      f-3     :     0.000424
  2 H s       :     0.684427  s :     0.684427
      pz      :     0.020924  p :     0.035002
      px      :     0.007743
      py      :     0.006335
  3 H s       :     0.646577  s :     0.646577
      pz      :     0.011467  p :     0.059604
      px      :     0.039502
      py      :     0.008635
  4 H s       :     0.682753  s :     0.682753
      pz      :     0.008471  p :     0.035187
      px      :     0.008660
      py      :     0.018056
  5 H s       :     0.782466  s :     0.782466
      pz      :     0.005435  p :     0.024971
      px      :     0.004783
      py      :     0.014753
  6 H s       :     0.814380  s :     0.814380
      pz      :     0.004463  p :     0.023003
      px      :     0.014789
      py      :     0.003752
  7 H s       :     0.776094  s :     0.776094
      pz      :     0.015641  p :     0.024880
      px      :     0.004711
      py      :     0.004528
  8 Pbs       :     3.909291  s :     3.909291
      pz      :     2.398421  p :     7.041282
      px      :     2.347968
      py      :     2.294893
      dz2     :     2.026615  d :    10.123308
      dxz     :     2.026910
      dyz     :     2.018121
      dx2y2   :     2.030094
      dxy     :     2.021569
      f0      :     0.012592  f :     0.110374
      f+1     :     0.011675
      f-1     :     0.015769
      f+2     :     0.018539
      f-2     :     0.013196
      f+3     :     0.018625
      f-3     :     0.019977
  9 Cls       :     5.946999  s :     5.946999
      pz      :     3.883531  p :    11.539730
      px      :     3.755179
      py      :     3.901020
      dz2     :     0.011173  d :     0.060134
      dxz     :     0.011856
      dyz     :     0.009482
      dx2y2   :     0.015293
      dxy     :     0.012331
      f0      :     0.000479  f :     0.003768
      f+1     :     0.000554
      f-1     :     0.000444
      f+2     :     0.000556
      f-2     :     0.000474
      f+3     :     0.000611
      f-3     :     0.000650
 10 Cls       :     5.944679  s :     5.944679
      pz      :     3.876093  p :    11.503553
      px      :     3.879421
      py      :     3.748039
      dz2     :     0.010682  d :     0.071459
      dxz     :     0.013622
      dyz     :     0.014240
      dx2y2   :     0.019228
      dxy     :     0.013687
      f0      :     0.000663  f :     0.004680
      f+1     :     0.000477
      f-1     :     0.000606
      f+2     :     0.000849
      f-2     :     0.000603
      f+3     :     0.000655
      f-3     :     0.000827
 11 Cls       :     5.945233  s :     5.945233
      pz      :     3.844146  p :    11.520616
      px      :     3.858639
      py      :     3.817831
      dz2     :     0.011001  d :     0.057346
      dxz     :     0.011206
      dyz     :     0.014533
      dx2y2   :     0.009741
      dxy     :     0.010864
      f0      :     0.000488  f :     0.003672
      f+1     :     0.000486
      f-1     :     0.000620
      f+2     :     0.000540
      f-2     :     0.000637
      f+3     :     0.000461
      f-3     :     0.000440


                     *******************************
                     * LOEWDIN POPULATION ANALYSIS *
                     *******************************

----------------------
LOEWDIN ATOMIC CHARGES
----------------------
   0 C :   -0.341574
   1 N :    0.118417
   2 H :    0.192170
   3 H :    0.070582
   4 H :    0.193816
   5 H :    0.126633
   6 H :    0.122565
   7 H :    0.127043
   8 Pb:   -0.165264
   9 Cl:   -0.182425
  10 Cl:   -0.063929
  11 Cl:   -0.198034

-------------------------------
LOEWDIN REDUCED ORBITAL CHARGES
-------------------------------
  0 C s       :     2.857252  s :     2.857252
      pz      :     1.076840  p :     3.120079
      px      :     1.066562
      py      :     0.976678
      dz2     :     0.075725  d :     0.323935
      dxz     :     0.029500
      dyz     :     0.071655
      dx2y2   :     0.091502
      dxy     :     0.055552
      f0      :     0.004088  f :     0.040308
      f+1     :     0.004112
      f-1     :     0.004916
      f+2     :     0.006087
      f-2     :     0.008327
      f+3     :     0.007079
      f-3     :     0.005698
  1 N s       :     2.974264  s :     2.974264
      pz      :     1.207137  p :     3.711074
      px      :     1.281270
      py      :     1.222667
      dz2     :     0.053893  d :     0.183709
      dxz     :     0.017138
      dyz     :     0.028610
      dx2y2   :     0.056741
      dxy     :     0.027325
      f0      :     0.001720  f :     0.012535
      f+1     :     0.001594
      f-1     :     0.001499
      f+2     :     0.002006
      f-2     :     0.001932
      f+3     :     0.002197
      f-3     :     0.001587
  2 H s       :     0.701719  s :     0.701719
      pz      :     0.060813  p :     0.106111
      px      :     0.025823
      py      :     0.019474
  3 H s       :     0.718500  s :     0.718500
      pz      :     0.036601  p :     0.210919
      px      :     0.148469
      py      :     0.025849
  4 H s       :     0.700499  s :     0.700499
      pz      :     0.026243  p :     0.105685
      px      :     0.028333
      py      :     0.051108
  5 H s       :     0.803540  s :     0.803540
      pz      :     0.016286  p :     0.069826
      px      :     0.014591
      py      :     0.038950
  6 H s       :     0.812428  s :     0.812428
      pz      :     0.013567  p :     0.065007
      px      :     0.040159
      py      :     0.011281
  7 H s       :     0.802608  s :     0.802608
      pz      :     0.044227  p :     0.070349
      px      :     0.014103
      py      :     0.012019
  8 Pbs       :     3.660321  s :     3.660321
      pz      :     2.534330  p :     7.551687
      px      :     2.516743
      py      :     2.500614
      dz2     :     2.113355  d :    10.679626
      dxz     :     2.118378
      dyz     :     2.131133
      dx2y2   :     2.186548
      dxy     :     2.130212
      f0      :     0.026756  f :     0.273630
      f+1     :     0.024737
      f-1     :     0.039409
      f+2     :     0.046022
      f-2     :     0.032469
      f+3     :     0.046817
      f-3     :     0.057420
  9 Cls       :     5.724416  s :     5.724416
      pz      :     3.824364  p :    11.370757
      px      :     3.717276
      py      :     3.829117
      dz2     :     0.015810  d :     0.081978
      dxz     :     0.012858
      dyz     :     0.010224
      dx2y2   :     0.027159
      dxy     :     0.015927
      f0      :     0.000571  f :     0.005274
      f+1     :     0.000890
      f-1     :     0.000500
      f+2     :     0.000706
      f-2     :     0.000517
      f+3     :     0.001003
      f-3     :     0.001087
 10 Cls       :     5.668568  s :     5.668568
      pz      :     3.812709  p :    11.277785
      px      :     3.763183
      py      :     3.701894
      dz2     :     0.014144  d :     0.109732
      dxz     :     0.018465
      dyz     :     0.022477
      dx2y2   :     0.038950
      dxy     :     0.015696
      f0      :     0.001134  f :     0.007844
      f+1     :     0.000512
      f-1     :     0.000832
      f+2     :     0.001718
      f-2     :     0.000865
      f+3     :     0.000833
      f-3     :     0.001951
 11 Cls       :     5.737538  s :     5.737538
      pz      :     3.797450  p :    11.380711
      px      :     3.809193
      py      :     3.774068
      dz2     :     0.012926  d :     0.074806
      dxz     :     0.014221
      dyz     :     0.025102
      dx2y2   :     0.010205
      dxy     :     0.012351
      f0      :     0.000506  f :     0.004978
      f+1     :     0.000650
      f-1     :     0.001112
      f+2     :     0.000689
      f-2     :     0.001051
      f+3     :     0.000533
      f-3     :     0.000436


                      *****************************
                      * MAYER POPULATION ANALYSIS *
                      *****************************

  NA   - Mulliken gross atomic population
  ZA   - Total nuclear charge
  QA   - Mulliken gross atomic charge
  VA   - Mayer's total valence
  BVA  - Mayer's bonded valence
  FA   - Mayer's free valence

  ATOM       NA         ZA         QA         VA         BVA        FA
  0 C      6.3582     6.0000    -0.3582     3.8203     3.6996     0.1207
  1 N      7.2663     7.0000    -0.2663     3.3740     3.2386     0.1354
  2 H      0.7194     1.0000     0.2806     0.9191     0.9014     0.0177
  3 H      0.7062     1.0000     0.2938     1.0215     1.0019     0.0196
  4 H      0.7179     1.0000     0.2821     0.9203     0.9027     0.0175
  5 H      0.8074     1.0000     0.1926     0.9764     0.9573     0.0191
  6 H      0.8374     1.0000     0.1626     0.9747     0.9561     0.0186
  7 H      0.8010     1.0000     0.1990     0.9814     0.9623     0.0191
  8 Pb    21.1843    22.0000     0.8157     2.2378     1.8683     0.3695
  9 Cl    17.5506    17.0000    -0.5506     0.9750     0.7122     0.2628
 10 Cl    17.5244    17.0000    -0.5244     1.0395     0.7808     0.2586
 11 Cl    17.5269    17.0000    -0.5269     1.0358     0.7743     0.2615

  Mayer bond orders larger than 0.1
B(  0-C ,  1-N ) :   0.8283 B(  0-C ,  5-H ) :   0.9417 B(  0-C ,  6-H ) :   0.9512 
B(  0-C ,  7-H ) :   0.9372 B(  1-N ,  2-H ) :   0.8837 B(  1-N ,  3-H ) :   0.7095 
B(  1-N ,  4-H ) :   0.8884 B(  3-H , 10-Cl) :   0.2861 B(  8-Pb,  9-Cl) :   0.6306 
B(  8-Pb, 10-Cl) :   0.4733 B(  8-Pb, 11-Cl) :   0.7547 


                *******************************************
                * RELAXED MP2 DENSITY POPULATION ANALYSIS *
                *******************************************

------------------------------------------------------------------------------
                           ORCA POPULATION ANALYSIS
------------------------------------------------------------------------------
Input electron density              ... PbMACl3_mp2_md_2.orca.pmp2re
BaseName (.gbw .S,...)              ... PbMACl3_mp2_md_2.orca

                    ********************************
                    * MULLIKEN POPULATION ANALYSIS *
                    ********************************

-----------------------
MULLIKEN ATOMIC CHARGES
-----------------------
   0 C :   -0.377725
   1 N :   -0.266231
   2 H :    0.281008
   3 H :    0.285838
   4 H :    0.282616
   5 H :    0.196469
   6 H :    0.166123
   7 H :    0.200737
   8 Pb:    0.763106
   9 Cl:   -0.527056
  10 Cl:   -0.501689
  11 Cl:   -0.503198
Sum of atomic charges:   -0.0000000

--------------------------------
MULLIKEN REDUCED ORBITAL CHARGES
--------------------------------
  0 C s       :     3.301122  s :     3.301122
      pz      :     1.046870  p :     2.989978
      px      :     1.069969
      py      :     0.873139
      dz2     :     0.018523  d :     0.079320
      dxz     :     0.008727
      dyz     :     0.017974
      dx2y2   :     0.021318
      dxy     :     0.012779
      f0      :     0.001192  f :     0.007305
      f+1     :     0.000705
      f-1     :     0.000958
      f+2     :     0.000956
      f-2     :     0.001026
      f+3     :     0.001391
      f-3     :     0.001076
  1 N s       :     3.401809  s :     3.401809
      pz      :     1.229052  p :     3.803486
      px      :     1.349543
      py      :     1.224892
      dz2     :     0.015940  d :     0.057518
      dxz     :     0.006186
      dyz     :     0.008437
      dx2y2   :     0.018389
      dxy     :     0.008566
      f0      :     0.000751  f :     0.003418
      f+1     :     0.000414
      f-1     :     0.000393
      f+2     :     0.000398
      f-2     :     0.000296
      f+3     :     0.000740
      f-3     :     0.000425
  2 H s       :     0.684394  s :     0.684394
      pz      :     0.020333  p :     0.034598
      px      :     0.007852
      py      :     0.006413
  3 H s       :     0.655081  s :     0.655081
      pz      :     0.011540  p :     0.059081
      px      :     0.038786
      py      :     0.008755
  4 H s       :     0.682623  s :     0.682623
      pz      :     0.008440  p :     0.034760
      px      :     0.008711
      py      :     0.017609
  5 H s       :     0.778941  s :     0.778941
      pz      :     0.005431  p :     0.024590
      px      :     0.004853
      py      :     0.014306
  6 H s       :     0.811234  s :     0.811234
      pz      :     0.004556  p :     0.022643
      px      :     0.014240
      py      :     0.003848
  7 H s       :     0.774773  s :     0.774773
      pz      :     0.015080  p :     0.024489
      px      :     0.004785
      py      :     0.004623
  8 Pbs       :     3.923859  s :     3.923859
      pz      :     2.402933  p :     7.081500
      px      :     2.362888
      py      :     2.315679
      dz2     :     2.026328  d :    10.123051
      dxz     :     2.027308
      dyz     :     2.017247
      dx2y2   :     2.029277
      dxy     :     2.022891
      f0      :     0.012408  f :     0.108483
      f+1     :     0.011430
      f-1     :     0.015447
      f+2     :     0.018249
      f-2     :     0.012966
      f+3     :     0.018360
      f-3     :     0.019622
  9 Cls       :     5.947665  s :     5.947665
      pz      :     3.874641  p :    11.515374
      px      :     3.747175
      py      :     3.893558
      dz2     :     0.011233  d :     0.060239
      dxz     :     0.011723
      dyz     :     0.009536
      dx2y2   :     0.015428
      dxy     :     0.012319
      f0      :     0.000479  f :     0.003778
      f+1     :     0.000555
      f-1     :     0.000446
      f+2     :     0.000558
      f-2     :     0.000475
      f+3     :     0.000614
      f-3     :     0.000652
 10 Cls       :     5.944476  s :     5.944476
      pz      :     3.867683  p :    11.480224
      px      :     3.870027
      py      :     3.742515
      dz2     :     0.010678  d :     0.072279
      dxz     :     0.013819
      dyz     :     0.014487
      dx2y2   :     0.019496
      dxy     :     0.013799
      f0      :     0.000666  f :     0.004710
      f+1     :     0.000480
      f-1     :     0.000609
      f+2     :     0.000854
      f-2     :     0.000610
      f+3     :     0.000661
      f-3     :     0.000830
 11 Cls       :     5.945980  s :     5.945980
      pz      :     3.835668  p :    11.496374
      px      :     3.850520
      py      :     3.810186
      dz2     :     0.011065  d :     0.057163
      dxz     :     0.011141
      dyz     :     0.014502
      dx2y2   :     0.009745
      dxy     :     0.010710
      f0      :     0.000491  f :     0.003681
      f+1     :     0.000487
      f-1     :     0.000621
      f+2     :     0.000543
      f-2     :     0.000636
      f+3     :     0.000461
      f-3     :     0.000442


                     *******************************
                     * LOEWDIN POPULATION ANALYSIS *
                     *******************************

----------------------
LOEWDIN ATOMIC CHARGES
----------------------
   0 C :   -0.351791
   1 N :    0.114713
   2 H :    0.192949
   3 H :    0.068968
   4 H :    0.194529
   5 H :    0.128632
   6 H :    0.124430
   7 H :    0.128488
   8 Pb:   -0.192881
   9 Cl:   -0.169458
  10 Cl:   -0.054808
  11 Cl:   -0.183771

-------------------------------
LOEWDIN REDUCED ORBITAL CHARGES
-------------------------------
  0 C s       :     2.859257  s :     2.859257
      pz      :     1.081088  p :     3.132991
      px      :     1.070316
      py      :     0.981587
      dz2     :     0.074490  d :     0.319518
      dxz     :     0.029195
      dyz     :     0.070627
      dx2y2   :     0.090334
      dxy     :     0.054873
      f0      :     0.004031  f :     0.040025
      f+1     :     0.004093
      f-1     :     0.004884
      f+2     :     0.006037
      f-2     :     0.008289
      f+3     :     0.007039
      f-3     :     0.005651
  1 N s       :     2.975715  s :     2.975715
      pz      :     1.208844  p :     3.713107
      px      :     1.281370
      py      :     1.222894
      dz2     :     0.053673  d :     0.183864
      dxz     :     0.017254
      dyz     :     0.028453
      dx2y2   :     0.057196
      dxy     :     0.027287
      f0      :     0.001715  f :     0.012601
      f+1     :     0.001606
      f-1     :     0.001500
      f+2     :     0.002024
      f-2     :     0.001950
      f+3     :     0.002217
      f-3     :     0.001589
  2 H s       :     0.701089  s :     0.701089
      pz      :     0.060385  p :     0.105962
      px      :     0.026010
      py      :     0.019568
  3 H s       :     0.720651  s :     0.720651
      pz      :     0.036623  p :     0.210381
      px      :     0.147819
      py      :     0.025939
  4 H s       :     0.699977  s :     0.699977
      pz      :     0.026225  p :     0.105495
      px      :     0.028478
      py      :     0.050792
  5 H s       :     0.801287  s :     0.801287
      pz      :     0.016411  p :     0.070081
      px      :     0.014788
      py      :     0.038882
  6 H s       :     0.810371  s :     0.810371
      pz      :     0.013786  p :     0.065199
      px      :     0.039898
      py      :     0.011515
  7 H s       :     0.800981  s :     0.800981
      pz      :     0.043979  p :     0.070531
      px      :     0.014301
      py      :     0.012251
  8 Pbs       :     3.673991  s :     3.673991
      pz      :     2.534138  p :     7.574121
      px      :     2.525750
      py      :     2.514233
      dz2     :     2.112192  d :    10.673628
      dxz     :     2.117696
      dyz     :     2.129292
      dx2y2   :     2.184180
      dxy     :     2.130268
      f0      :     0.026420  f :     0.271141
      f+1     :     0.024421
      f-1     :     0.038976
      f+2     :     0.045714
      f-2     :     0.032119
      f+3     :     0.046455
      f-3     :     0.057036
  9 Cls       :     5.727620  s :     5.727620
      pz      :     3.817335  p :    11.353349
      px      :     3.712395
      py      :     3.823620
      dz2     :     0.016006  d :     0.083129
      dxz     :     0.012988
      dyz     :     0.010289
      dx2y2   :     0.027652
      dxy     :     0.016194
      f0      :     0.000580  f :     0.005360
      f+1     :     0.000898
      f-1     :     0.000503
      f+2     :     0.000721
      f-2     :     0.000523
      f+3     :     0.001022
      f-3     :     0.001112
 10 Cls       :     5.671870  s :     5.671870
      pz      :     3.807199  p :    11.263131
      px      :     3.756670
      py      :     3.699262
      dz2     :     0.014374  d :     0.111841
      dxz     :     0.018747
      dyz     :     0.022817
      dx2y2   :     0.039894
      dxy     :     0.016009
      f0      :     0.001140  f :     0.007966
      f+1     :     0.000517
      f-1     :     0.000857
      f+2     :     0.001732
      f-2     :     0.000872
      f+3     :     0.000854
      f-3     :     0.001994
 11 Cls       :     5.740669  s :     5.740669
      pz      :     3.791011  p :    11.362331
      px      :     3.802785
      py      :     3.768535
      dz2     :     0.013008  d :     0.075707
      dxz     :     0.014426
      dyz     :     0.025555
      dx2y2   :     0.010297
      dxy     :     0.012422
      f0      :     0.000514  f :     0.005063
      f+1     :     0.000660
      f-1     :     0.001128
      f+2     :     0.000702
      f-2     :     0.001080
      f+3     :     0.000541
      f-3     :     0.000440


                      *****************************
                      * MAYER POPULATION ANALYSIS *
                      *****************************

  NA   - Mulliken gross atomic population
  ZA   - Total nuclear charge
  QA   - Mulliken gross atomic charge
  VA   - Mayer's total valence
  BVA  - Mayer's bonded valence
  FA   - Mayer's free valence

  ATOM       NA         ZA         QA         VA         BVA        FA
  0 C      6.3777     6.0000    -0.3777     3.8179     3.6975     0.1203
  1 N      7.2662     7.0000    -0.2662     3.3779     3.2428     0.1351
  2 H      0.7190     1.0000     0.2810     0.9187     0.9010     0.0177
  3 H      0.7142     1.0000     0.2858     1.0285     1.0090     0.0195
  4 H      0.7174     1.0000     0.2826     0.9199     0.9024     0.0175
  5 H      0.8035     1.0000     0.1965     0.9777     0.9587     0.0190
  6 H      0.8339     1.0000     0.1661     0.9730     0.9544     0.0186
  7 H      0.7993     1.0000     0.2007     0.9846     0.9656     0.0190
  8 Pb    21.2369    22.0000     0.7631     2.3211     1.9577     0.3634
  9 Cl    17.5271    17.0000    -0.5271     1.0188     0.7575     0.2613
 10 Cl    17.5017    17.0000    -0.5017     1.0836     0.8262     0.2574
 11 Cl    17.5032    17.0000    -0.5032     1.0781     0.8184     0.2598

  Mayer bond orders larger than 0.1
B(  0-C ,  1-N ) :   0.8347 B(  0-C ,  5-H ) :   0.9372 B(  0-C ,  6-H ) :   0.9474 
B(  0-C ,  7-H ) :   0.9329 B(  1-N ,  2-H ) :   0.8817 B(  1-N ,  3-H ) :   0.7044 
B(  1-N ,  4-H ) :   0.8868 B(  3-H , 10-Cl) :   0.2972 B(  8-Pb,  9-Cl) :   0.6588 
B(  8-Pb, 10-Cl) :   0.4931 B(  8-Pb, 11-Cl) :   0.7924 


-------
TIMINGS
-------

Total time                :  401.410 sec
Integral trafo            :    2.420 sec (  0.6%)
I/O of integrals          :    0.108 sec (  0.0%)
K(i,j) Operators          :    3.558 sec (  0.9%)
T(i,j) pair energies      :    0.910 sec (  0.2%)
V-calculation             :    0.020 sec (  0.0%)
V**(-1/2)                 :    0.041 sec (  0.0%)
Gamma(ia|P)               :    3.171 sec (  0.8%)
Gamma-Trafo               :    0.459 sec (  0.1%)
D(virtual)                :    1.463 sec (  0.4%)
D(internal)               :    3.079 sec (  0.8%)
W(virtual)                :    2.916 sec (  0.7%)
W(internal)               :   11.091 sec (  2.8%)
L(virtual)                :    4.349 sec (  1.1%)
L(internal)               :    0.167 sec (  0.0%)
G(D)                      :   11.526 sec (  2.9%)
G(Z)                      :   11.720 sec (  2.9%)
Z-Vector Solution         :  253.937 sec ( 63.3%)
Z-Vector Solution         :  253.937 sec ( 63.3%)
3-Index Derivative 
+ Separable RIJ part      :    3.595 sec (  0.9%)
2-Index Derivative 
+ Separable RIJ part      :    0.018 sec (  0.0%)
Separable Gradient (COSX) :   84.488 sec ( 21.0%)


---------------------------------------
MP2 TOTAL ENERGY:    -1669.551956216 Eh
---------------------------------------

The final MP2 gradient
  0:  -0.01067198   0.00872939   0.00565770
  1:  -0.05432290  -0.00774139  -0.01865644
  2:  -0.00289721  -0.00355657  -0.00684474
  3:   0.02579224   0.00064615   0.00491039
  4:  -0.00045292  -0.00738583  -0.00051782
  5:  -0.00082965  -0.00865810  -0.00019788
  6:   0.00257956  -0.00229869  -0.00200838
  7:   0.00007726  -0.00372749  -0.00840678
  8:   0.03298352   0.04685831   0.04360746
  9:  -0.02396536   0.01585937   0.00597792
 10:   0.03240675  -0.04447693  -0.00583738
 11:  -0.00004911   0.00659152  -0.01744413

-----------------------------------
NORM OF THE MP2 GRADIENT:  0.118436
-----------------------------------

Entering the calculation of the dispersion correction...

Checking the input atom types...

Done


-------------------------------------------------------------------------------
                          DFT DISPERSION CORRECTION                            
                                                                               
                                DFTD3 V2.1  Rev 6                               
                          USING Becke-Johnson damping                          
-------------------------------------------------------------------------------
The B2PLYP functional is recognized
Active option DFTDOPT                   ...         4   

molecular C6(AA) [au] = 4865.365137 


            DFT-D V3
 parameters
 s6 scaling factor         :     0.6400 
 a1 scaling factor         :     0.3065 
 s8 scaling factor         :     0.9147 
 a2 scaling factor         :     5.0570 
 ad hoc parameters k1-k3   :    16.0000     1.3333    -4.0000 

 Edisp/kcal,au: -8.690002167226  -0.013848398470 
 E6   /kcal   :  -3.955167934 
 E8   /kcal   :  -4.734834233 
 % E8         :  54.485995997 

-------------------------   ----------------
Dispersion correction           -0.013848398
-------------------------   ----------------


-------------------------   --------------------
FINAL SINGLE POINT ENERGY     -1669.565804614681
-------------------------   --------------------


                            ***************************************
                            *     ORCA property calculations      *
                            ***************************************


  WARNING: The energy has been calculated at the MP2 level but the densities
           used in the property calculations are still SCF densities
           MP2 response densities have not been calculated 
           use %mp2 Density relaxed end
           or  %mp2 Density unrelaxed end

                                    ---------------------
                                    Active property flags
                                    ---------------------
   (+) Dipole Moment


------------------------------------------------------------------------------
                       ORCA ELECTRIC PROPERTIES CALCULATION
------------------------------------------------------------------------------

Dipole Moment Calculation                       ... on
Quadrupole Moment Calculation                   ... off
Polarizability Calculation                      ... off
GBWName                                         ... PbMACl3_mp2_md_2.orca.gbw
Electron density file                           ... PbMACl3_mp2_md_2.orca.scfp.tmp

-------------
DIPOLE MOMENT
-------------
                                X             Y             Z
Electronic contribution:    -64.38135     -46.14396     -50.29592
Nuclear contribution   :     66.62026      50.01459      51.23219
                        -----------------------------------------
Total Dipole Moment    :      2.23891       3.87063       0.93627
                        -----------------------------------------
Magnitude (a.u.)       :      4.56849
Magnitude (Debye)      :     11.61219


                         *** MP2 UNRELAXED DENSITY ***

------------------------------------------------------------------------------
                       ORCA ELECTRIC PROPERTIES CALCULATION
------------------------------------------------------------------------------

Dipole Moment Calculation                       ... on
Quadrupole Moment Calculation                   ... off
Polarizability Calculation                      ... off
GBWName                                         ... PbMACl3_mp2_md_2.orca.gbw
Electron density file                           ... PbMACl3_mp2_md_2.orca.pmp2ur

-------------
DIPOLE MOMENT
-------------
                                X             Y             Z
Electronic contribution:    -64.38359     -46.15756     -50.29225
Nuclear contribution   :     66.62026      50.01459      51.23219
                        -----------------------------------------
Total Dipole Moment    :      2.23667       3.85703       0.93993
                        -----------------------------------------
Magnitude (a.u.)       :      4.55663
Magnitude (Debye)      :     11.58204


                           *** MP2 RELAXED DENSITY ***

------------------------------------------------------------------------------
                       ORCA ELECTRIC PROPERTIES CALCULATION
------------------------------------------------------------------------------

Dipole Moment Calculation                       ... on
Quadrupole Moment Calculation                   ... off
Polarizability Calculation                      ... off
GBWName                                         ... PbMACl3_mp2_md_2.orca.gbw
Electron density file                           ... PbMACl3_mp2_md_2.orca.pmp2re

-------------
DIPOLE MOMENT
-------------
                                X             Y             Z
Electronic contribution:    -64.42827     -46.22165     -50.32258
Nuclear contribution   :     66.62026      50.01459      51.23219
                        -----------------------------------------
Total Dipole Moment    :      2.19199       3.79294       0.90961
                        -----------------------------------------
Magnitude (a.u.)       :      4.47422
Magnitude (Debye)      :     11.37256


Timings for individual modules:

Sum of individual times         ...      693.399 sec (=  11.557 min)
GTO integral calculation        ...        2.465 sec (=   0.041 min)   0.4 %
SCF iterations                  ...      288.245 sec (=   4.804 min)  41.6 %
MP2 module                      ...      402.688 sec (=   6.711 min)  58.1 %
                             ****ORCA TERMINATED NORMALLY****
TOTAL RUN TIME: 0 days 0 hours 11 minutes 34 seconds 980 msec
