
                                 *****************
                                 * O   R   C   A *
                                 *****************

           --- An Ab Initio, DFT and Semiempirical electronic structure package ---

                  #######################################################
                  #                        -***-                        #
                  #  Department of molecular theory and spectroscopy    #
                  #              Directorship: Frank Neese              #
                  # Max Planck Institute for Chemical Energy Conversion #
                  #                  D-45470 Muelheim/Ruhr              #
                  #                       Germany                       #
                  #                                                     #
                  #                  All rights reserved                #
                  #                        -***-                        #
                  #######################################################


                         Program Version 3.0.3 - RELEASE   -


 With contributions from (in alphabetic order):
   Ute Becker             : Parallelization
   Dmytro Bykov           : SCF Hessian
   Dmitry Ganyushin       : Spin-Orbit,Spin-Spin,Magnetic field MRCI
   Andreas Hansen         : Spin unrestricted coupled pair/coupled cluster methods
   Dimitrios Liakos       : Extrapolation schemes; parallel MDCI
   Robert Izsak           : Overlap fitted RIJCOSX, COSX-SCS-MP3
   Christian Kollmar      : KDIIS, OOCD, Brueckner-CCSD(T), CCSD density
   Simone Kossmann        : Meta GGA functionals, TD-DFT gradient, OOMP2, MP2 Hessian
   Taras Petrenko         : DFT Hessian,TD-DFT gradient, ASA and ECA modules, normal mode analysis, Resonance Raman, ABS, FL, XAS/XES, NRVS
   Christoph Reimann      : Effective Core Potentials
   Michael Roemelt        : Restricted open shell CIS
   Christoph Riplinger    : Improved optimizer, TS searches, QM/MM, DLPNO-CCSD
   Barbara Sandhoefer     : DKH picture change effects
   Igor Schapiro          : Molecular dynamics
   Kantharuban Sivalingam : CASSCF convergence, NEVPT2
   Boris Wezisla          : Elementary symmetry handling
   Frank Wennmohs         : Technical directorship


 We gratefully acknowledge several colleagues who have allowed us to
 interface, adapt or use parts of their codes:
   Stefan Grimme, W. Hujo, H. Kruse, T. Risthaus : VdW corrections, initial TS optimization,
                                                   DFT functionals, gCP
   Ed Valeev                                     : LibInt (2-el integral package), F12 methods
   Garnet Chan, S. Sharma, R. Olivares           : DMRG
   Ulf Ekstrom                                   : XCFun DFT Library
   Mihaly Kallay                                 : mrcc  (arbitrary order and MRCC methods)
   Andreas Klamt, Michael Diedenhofen            : otool_cosmo (COSMO solvation model)
   Frank Weinhold                                : gennbo (NPA and NBO analysis)
   Christopher J. Cramer and Donald G. Truhlar   : smd solvation model


 Your calculation uses the libint2 library for the computation of 2-el integrals
 For citations please refer to: http://libint.valeyev.net

 This ORCA versions uses:
   CBLAS   interface :  Fast vector & matrix operations
   LAPACKE interface :  Fast linear algebra routines
   SCALAPACK package :  Parallel linear algebra routines


Your calculation utilizes the basis: Ahlrichs-TZV
Cite in your paper:
H - Kr: A. Schaefer, H. Horn and R. Ahlrichs, J. Chem. Phys. 97, 2571 (1992).

The def2-TZV basis will be loaded
Cite in your paper:
 	F. Weigend, R. Ahlrichs, Phys. Chem. Chem. Phys. 2005, 7, 3297.

Your calculation utilizes the atom-pairwise dispersion correction
with the Becke-Johnson damping scheme (D3BJ)
Cite in your paper:
S.Grimme, S.Ehrlich, L.Goerigk, J Comput Chem, (2011), 32, 1456–1465 
S.Grimme, J.Antony, S.Ehrlich and H.Krieg, J.Chem.Phys., 132, (2010), 154104 
   

================================================================================
                                        WARNINGS
                       Please study these warnings very carefully!
================================================================================

WARNING: The RI method has been chosen with no auxiliary basis (AUX or GTOAUX in BASIS block)
        Standard TZV/J expansion basis used (GTOAUX=TZV_J)

Now building the actual basis set
cite the ECPs for Pb [SD(60,MDF)] as follows:
  B. Metz, H. Stoll, M. Dolg, J. Chem. Phys. 113, 2563 (2000).

ECP parameters for Pb [SD(60,MDF)] have been obtained from:
  pseudopotential library of the Stuttgart/Cologne group
  http://www.theochem.uni-stuttgart.de/pseudopotentials/

cite the ECP basis sets for Pb [DEF2-TZVP] as follows:
  F. Weigend, R. Ahlrichs; Phys. Chem. Chem. Phys. 7, 3297(2005).

ECP basis sets for Pb [DEF2-TZVP] have been obtained from:
  Turbomole basis set library
  ftp://ftp.chemie.uni-karlsruhe.de/pub/basen/



INFO   : the flag for use of LIBINT has been found!

================================================================================
                                       INPUT FILE
================================================================================
NAME = PbCl6_MA2_mp2_sp_0.orca
|  1> ! RIJCOSX RI-B2PLYP D3BJ def2-TZVP ECP{def2-TZVP} TIGHTSCF Grid5 FinalGrid6 MORead
|  2> %method
|  3>  RunTyp Gradient
|  4>  end
|  5> %maxcore 1000
|  6> %moinp "previous.gbw"
|  7> *xyz 0 1
|  8> C 2.891451 3.575826 2.778059 
|  9> N 2.089424 2.555032 2.059582 
| 10> H 3.558472 3.076137 3.484362 
| 11> H 2.218727 4.247132 3.316750 
| 12> H 3.479382 4.144646 2.054078 
| 13> H 1.492676 1.958835 2.673590 
| 14> H 2.651801 1.866309 1.511973 
| 15> H 1.418732 2.942131 1.359080 
| 16> Pb 0.070507 -0.016889 0.210559 
| 17> Cl 2.682459 0.131577 0.202115 
| 18> Cl -0.095084 2.569585 -0.154262 
| 19> Cl 0.044033 0.328389 2.802241 
| 20> Cl -2.540036 -0.167872 0.220231 
| 21> Cl 0.099012 -0.366216 -2.379906 
| 22> Cl 0.240299 -2.604935 0.576462 
| 23> N -1.944119 -2.595072 -1.633806 
| 24> C -2.725500 -3.643046 -2.335777 
| 25> H -2.519034 -1.905375 -1.102173 
| 26> H -1.352579 -2.002501 -2.255638 
| 27> H -3.308461 -4.206070 -1.603344 
| 28> H -2.038395 -4.314606 -2.855607 
| 29> H -3.396098 -3.169682 -3.056568 
| 30> H -1.270867 -2.959590 -0.921865 
| 31> *
| 32> 
| 33>                          ****END OF INPUT****
================================================================================

                     *******************************
                     * Energy+Gradient Calculation *
                     *******************************

---------------------------------
CARTESIAN COORDINATES (ANGSTROEM)
---------------------------------
  C      2.891451    3.575826    2.778059
  N      2.089424    2.555032    2.059582
  H      3.558472    3.076137    3.484362
  H      2.218727    4.247132    3.316750
  H      3.479382    4.144646    2.054078
  H      1.492676    1.958835    2.673590
  H      2.651801    1.866309    1.511973
  H      1.418732    2.942131    1.359080
  Pb     0.070507   -0.016889    0.210559
  Cl     2.682459    0.131577    0.202115
  Cl    -0.095084    2.569585   -0.154262
  Cl     0.044033    0.328389    2.802241
  Cl    -2.540036   -0.167872    0.220231
  Cl     0.099012   -0.366216   -2.379906
  Cl     0.240299   -2.604935    0.576462
  N     -1.944119   -2.595072   -1.633806
  C     -2.725500   -3.643046   -2.335777
  H     -2.519034   -1.905375   -1.102173
  H     -1.352579   -2.002501   -2.255638
  H     -3.308461   -4.206070   -1.603344
  H     -2.038395   -4.314606   -2.855607
  H     -3.396098   -3.169682   -3.056568
  H     -1.270867   -2.959590   -0.921865

----------------------------
CARTESIAN COORDINATES (A.U.)
----------------------------
  NO LB      ZA    FRAG    MASS        X           Y           Z
   0 C     6.0000    0    12.011          5.464050519652737          6.757331842555094          5.249770693875139
   1 N     7.0000    0    14.007          3.948439137642278          4.828310743405084          3.892045930353799
   2 H     1.0000    0     1.008          6.724537535227024          5.813056480422118          6.584489931442120
   3 H     1.0000    0     1.008          4.192786395936697          8.025916334613234          6.267749154683311
   4 H     1.0000    0     1.008          6.575079095295193          7.832245862052179          3.881644877712697
   5 H     1.0000    0     1.008          2.820748846677038          3.701661691539635          5.052352894390519
   6 H     1.0000    0     1.008          5.011177651658508          3.526812891272437          2.857214891883316
   7 H     1.0000    0     1.008          2.681014937430366          5.559821840119866          2.568288994089695
   8 Pb   22.0000*   0   207.200  0.133238920524386  -0.031915584675796  0.397898845032325
   9 Cl   17.0000    0    35.453          5.069112875472267          0.248644495522957          0.381941997557494
  10 Cl   17.0000    0    35.453         -0.179682719717768          4.855811927832040         -0.291512932870960
  11 Cl   17.0000    0    35.453          0.083210310854954          0.620565275392266          5.295468051245622
  12 Cl   17.0000    0    35.453         -4.799972410300801         -0.317232105553628          0.416176276199611
  13 Cl   17.0000    0    35.453          0.187105563971811         -0.692047945860105         -4.497370564475990
  14 Cl   17.0000    0    35.453          0.454099300255143         -4.922613746666156          1.089355306612513
  15 N     7.0000    0    14.007         -3.673852481752850         -4.903975377807290         -3.087445895957345
  16 C     6.0000    0    12.011         -5.150448578002371         -6.884359233277280         -4.413978839912180
  17 H     1.0000    0     1.008         -4.760284382036186         -3.600636932420205         -2.082805122202388
  18 H     1.0000    0     1.008         -2.556003884493073         -3.784178472903441         -4.262538077265864
  19 H     1.0000    0     1.008         -6.252085214759238         -7.948320400102160         -3.029881058465835
  20 H     1.0000    0     1.008         -3.852008302754410         -8.153423715773437         -5.396315176108463
  21 H     1.0000    0     1.008         -6.417695143957695         -5.989830911619781         -5.776076429707413
  22 H     1.0000    0     1.008         -2.401590582638099         -5.592814568691997         -1.742072382447315
* core charge reduced due to ECP

--------------------------------
INTERNAL COORDINATES (ANGSTROEM)
--------------------------------
 C      0   0   0   0.000000     0.000     0.000
 N      1   0   0   1.483737     0.000     0.000
 H      1   2   0   1.092461   109.173     0.000
 H      1   2   3   1.092427   109.189   239.987
 H      1   2   3   1.092414   109.162   119.981
 H      2   1   3   1.043343   114.666    59.960
 H      2   1   3   1.044262   114.619   299.917
 H      2   1   3   1.044211   114.645   179.984
 Pb     8   2   1   3.448566    99.000   179.517
 Cl     7   2   1   2.173928   148.195   180.380
 Cl     8   2   1   2.172702   148.344   178.851
 Cl     6   2   1   2.184828   147.174   179.667
 Cl     9   8   2   2.614923   116.015   128.184
 Cl     9   8   2   2.614068   116.132   232.538
 Cl     9   8   2   2.619293   140.890     0.381
 N     15   9   8   3.107582    81.485   179.874
 C     16  15   9   1.483769   134.783   180.373
 H     16  15   9   1.043476    91.548   308.366
 H     16  15   9   1.042945    91.557    52.349
 H     17  16  15   1.092382   109.139    60.091
 H     17  16  15   1.092396   109.153   300.149
 H     17  16  15   1.092390   109.232   180.101
 H     16  15   9   1.045467    20.262   180.400

---------------------------
INTERNAL COORDINATES (A.U.)
---------------------------
 C      0   0   0   0.000000     0.000     0.000
 N      1   0   0   2.803857     0.000     0.000
 H      1   2   0   2.064451   109.173     0.000
 H      1   2   3   2.064388   109.189   239.987
 H      1   2   3   2.064363   109.162   119.981
 H      2   1   3   1.971633   114.666    59.960
 H      2   1   3   1.973369   114.619   299.917
 H      2   1   3   1.973273   114.645   179.984
 Pb     8   2   1   6.516846    99.000   179.517
 Cl     7   2   1   4.108129   148.195   180.380
 Cl     8   2   1   4.105812   148.344   178.851
 Cl     6   2   1   4.128726   147.174   179.667
 Cl     9   8   2   4.941489   116.015   128.184
 Cl     9   8   2   4.939872   116.132   232.538
 Cl     9   8   2   4.949747   140.890     0.381
 N     15   9   8   5.872478    81.485   179.874
 C     16  15   9   2.803916   134.783   180.373
 H     16  15   9   1.971884    91.548   308.366
 H     16  15   9   1.970881    91.557    52.349
 H     17  16  15   2.064302   109.139    60.091
 H     17  16  15   2.064330   109.153   300.149
 H     17  16  15   2.064317   109.232   180.101
 H     16  15   9   1.975647    20.262   180.400

---------------------
BASIS SET INFORMATION
---------------------
There are 5 groups of distinct atoms

 Group   1 Type C   : 11s6p2d1f contracted to 5s3p2d1f pattern {62111/411/11/1}
 Group   2 Type N   : 11s6p2d1f contracted to 5s3p2d1f pattern {62111/411/11/1}
 Group   3 Type H   : 5s1p contracted to 3s1p pattern {311/1}
 Group   4 Type Pb  : 10s9p8d2f contracted to 6s5p3d2f pattern {421111/33111/611/11}
 Group   5 Type Cl  : 14s9p3d1f contracted to 5s5p2d1f pattern {73211/51111/21/1}

Atom   0C    basis set group =>   1
Atom   1N    basis set group =>   2
Atom   2H    basis set group =>   3
Atom   3H    basis set group =>   3
Atom   4H    basis set group =>   3
Atom   5H    basis set group =>   3
Atom   6H    basis set group =>   3
Atom   7H    basis set group =>   3
Atom   8Pb   basis set group =>   4
Atom   9Cl   basis set group =>   5
Atom  10Cl   basis set group =>   5
Atom  11Cl   basis set group =>   5
Atom  12Cl   basis set group =>   5
Atom  13Cl   basis set group =>   5
Atom  14Cl   basis set group =>   5
Atom  15N    basis set group =>   2
Atom  16C    basis set group =>   1
Atom  17H    basis set group =>   3
Atom  18H    basis set group =>   3
Atom  19H    basis set group =>   3
Atom  20H    basis set group =>   3
Atom  21H    basis set group =>   3
Atom  22H    basis set group =>   3
-------------------------------
AUXILIARY BASIS SET INFORMATION
-------------------------------
There are 5 groups of distinct atoms

 Group   1 Type C   : 12s5p4d2f1g contracted to 6s4p3d1f1g pattern {711111/2111/211/2/1}
 Group   2 Type N   : 12s5p4d2f1g contracted to 6s4p3d1f1g pattern {711111/2111/211/2/1}
 Group   3 Type H   : 5s2p1d contracted to 3s1p1d pattern {311/2/1}
 Group   4 Type Pb  : 31s12p8d6f3g contracted to 31s12p8d6f3g pattern {1111111111111111111111111111111/111111111111/11111111/111111/111}
 Group   5 Type Cl  : 14s5p5d2f1g contracted to 8s4p3d1f1g pattern {71111111/2111/311/2/1}

Atom   0C    basis set group =>   1
Atom   1N    basis set group =>   2
Atom   2H    basis set group =>   3
Atom   3H    basis set group =>   3
Atom   4H    basis set group =>   3
Atom   5H    basis set group =>   3
Atom   6H    basis set group =>   3
Atom   7H    basis set group =>   3
Atom   8Pb   basis set group =>   4
Atom   9Cl   basis set group =>   5
Atom  10Cl   basis set group =>   5
Atom  11Cl   basis set group =>   5
Atom  12Cl   basis set group =>   5
Atom  13Cl   basis set group =>   5
Atom  14Cl   basis set group =>   5
Atom  15N    basis set group =>   2
Atom  16C    basis set group =>   1
Atom  17H    basis set group =>   3
Atom  18H    basis set group =>   3
Atom  19H    basis set group =>   3
Atom  20H    basis set group =>   3
Atom  21H    basis set group =>   3
Atom  22H    basis set group =>   3

-------------------------
ECP PARAMETER INFORMATION
-------------------------

 Group 1, Type Pb ECP SD(60,MDF) (replacing 60 core electrons, lmax=5)

Atom   8Pb   ECP group =>   1


------------------------------------------------------------------------------
                           ORCA GTO INTEGRAL CALCULATION
                           -- RI-GTO INTEGRALS CHOSEN --
------------------------------------------------------------------------------

                         BASIS SET STATISTICS AND STARTUP INFO

Gaussian basis set:
 # of primitive gaussian shells          ...  343
 # of primitive gaussian functions       ...  749
 # of contracted shells                  ...  186
 # of contracted basis functions         ...  468
 Highest angular momentum                ...    3
 Maximum contraction depth               ...    7
Auxiliary gaussian basis set:
 # of primitive gaussian shells          ...  414
 # of primitive gaussian functions       ... 1110
 # of contracted shells                  ...  282
 # of contracted aux-basis functions     ...  810
 Highest angular momentum                ...    4
 Maximum contraction depth               ...    7
Ratio of auxiliary to basis functions    ...  1.73
Integral package used                  ... LIBINT
 One Electron integrals                  
   ECP integrals                         ... done
 Ordering auxiliary basis shells         ... done
 Integral threshhold             Thresh  ...  2.500e-11
 Primitive cut-off               TCut    ...  2.500e-12
 Pre-screening matrix                    ... done
 Shell pair data                         ... 
 Ordering of the shell pairs             ... done (   0.002 sec) 11671 of 17391 pairs
 Determination of significant pairs      ... done (   0.000 sec)
 Creation of shell pair data             ... done (   0.004 sec)
 Storage of shell pair data              ... done (   0.002 sec)
 Shell pair data done in (   0.008 sec)
 Computing two index integrals           ... done
 Cholesky decomposition of the V-matrix  ... done


Timings:
 Total evaluation time                   ...   1.796 sec (  0.030 min)
 One electron matrix time                ...   1.257 sec (  0.021 min) = 70.0%
 Schwartz matrix evaluation time         ...   0.434 sec (  0.007 min) = 24.1%
 Two index repulsion integral time       ...   0.022 sec (  0.000 min) =  1.2%
 Cholesky decomposition of V             ...   0.018 sec (  0.000 min) =  1.0%
 Three index repulsion integral time     ...   0.000 sec (  0.000 min) =  0.0%

-------------------------------------------------------------------------------
                                 ORCA SCF
-------------------------------------------------------------------------------

------------
SCF SETTINGS
------------
Hamiltonian:
 Density Functional     Method          .... DFT(GTOs)
 Exchange Functional    Exchange        .... B88
   X-Alpha parameter    XAlpha          ....  0.666667
   Becke's b parameter  XBeta           ....  0.004200
 Correlation Functional Correlation     .... LYP
 LDA part of GGA corr.  LDAOpt          .... VWN-3
 Gradients option       PostSCFGGA      .... off
 Hybrid DFT is turned on
   Fraction HF Exchange ScalHFX         ....  0.530000
   Scaling of DF-GGA-X  ScalDFX         ....  0.470000
   Scaling of DF-GGA-C  ScalDFC         ....  0.730000
   Scaling of DF-LDA-C  ScalLDAC        ....  0.730000
   Perturbative correction              ....  0.270000
 RI-approximation to the Coulomb term is turned on
   Number of auxiliary basis functions  .... 810
   RIJ-COSX (HFX calculated with COS-X)).... on


General Settings:
 Integral files         IntName         .... PbCl6_MA2_mp2_sp_0.orca
 Hartree-Fock type      HFTyp           .... RHF
 Total Charge           Charge          ....    0
 Multiplicity           Mult            ....    1
 Number of Electrons    NEL             ....  162
 Basis Dimension        Dim             ....  468
 Nuclear Repulsion      ENuc            ....   1710.3403312157 Eh

Convergence Acceleration:
 DIIS                   CNVDIIS         .... on
   Start iteration      DIISMaxIt       ....    12
   Startup error        DIISStart       ....  0.200000
   # of expansion vecs  DIISMaxEq       ....     5
   Bias factor          DIISBfac        ....   1.050
   Max. coefficient     DIISMaxC        ....  10.000
 Newton-Raphson         CNVNR           .... off
 SOSCF                  CNVSOSCF        .... on
   Start iteration      SOSCFMaxIt      ....   150
   Startup grad/error   SOSCFStart      ....  0.003300
 Level Shifting         CNVShift        .... on
   Level shift para.    LevelShift      ....    0.2500
   Turn off err/grad.   ShiftErr        ....    0.0010
 Zerner damping         CNVZerner       .... off
 Static damping         CNVDamp         .... on
   Fraction old density DampFac         ....    0.7000
   Max. Damping (<1)    DampMax         ....    0.9800
   Min. Damping (>=0)   DampMin         ....    0.0000
   Turn off err/grad.   DampErr         ....    0.1000
 Fernandez-Rico         CNVRico         .... off

SCF Procedure:
 Maximum # iterations   MaxIter         ....   125
 SCF integral mode      SCFMode         .... Direct
   Integral package                     .... LIBINT
 Reset frequeny         DirectResetFreq ....    20
 Integral Threshold     Thresh          ....  2.500e-11 Eh
 Primitive CutOff       TCut            ....  2.500e-12 Eh

Convergence Tolerance:
 Convergence Check Mode ConvCheckMode   .... Total+1el-Energy
 Energy Change          TolE            ....  1.000e-08 Eh
 1-El. energy change                    ....  1.000e-05 Eh
 Orbital Gradient       TolG            ....  1.000e-05
 Orbital Rotation angle TolX            ....  1.000e-05
 DIIS Error             TolErr          ....  5.000e-07


Diagonalization of the overlap matrix:
Smallest eigenvalue                        ... 1.104e-03
Time for diagonalization                   ...    0.144 sec
Threshold for overlap eigenvalues          ... 1.000e-08
Number of eigenvalues below threshold      ... 0
Time for construction of square roots      ...    0.039 sec
Total time needed                          ...    0.185 sec

---------------------
INITIAL GUESS: MOREAD
---------------------
Guess MOs are being read from file: previous.gbw
Input Geometry matches current geometry (good)
Input basis set matches current basis set (good)
MOs were renormalized
MOs were reorthogonalized (Schmidt)
                      ------------------
                      INITIAL GUESS DONE (   1.2 sec)
                      ------------------
-------------------
DFT GRID GENERATION
-------------------

General Integration Accuracy     IntAcc      ...  5.010
Radial Grid Type                 RadialGrid  ... Gauss-Chebyshev
Angular Grid (max. acc.)         AngularGrid ... Lebedev-434
Angular grid pruning method      GridPruning ... 3 (G Style)
Weight generation scheme         WeightScheme... Becke
Basis function cutoff            BFCut       ...    1.0000e-11
Integration weight cutoff        WCut        ...    1.0000e-14
Grids for H and He will be reduced by one unit

# of grid points (after initial pruning)     ... 212974 (   0.1 sec)
# of grid points (after weights+screening)   ... 195588 (   1.1 sec)
nearest neighbour list constructed           ...    0.0 sec
Grid point re-assignment to atoms done       ...    0.0 sec
Grid point division into batches done        ...    1.4 sec
Reduced shell lists constructed in    6.8 sec

Total number of grid points                  ...   195588
Total number of batches                      ...     3069
Average number of points per batch           ...       63
Average number of grid points per atom       ...     8504
Average number of shells per batch           ...    70.06 (37.66%)
Average number of basis functions per batch  ...   179.41 (38.34%)
Average number of large shells per batch     ...    48.18 (68.78%)
Average number of large basis fcns per batch ...   122.79 (68.44%)
Maximum spatial batch extension              ...  30.33, 28.73, 30.33 au
Average spatial batch extension              ...   2.10,  2.08,  2.08 au

Time for grid setup =    8.018 sec

--------------------
COSX GRID GENERATION
--------------------

General Integration Accuracy     IntAcc      ...  3.340
Radial Grid Type                 RadialGrid  ... Gauss-Chebyshev
Angular Grid (max. acc.)         AngularGrid ... Lebedev-50
Angular grid pruning method      GridPruning ... 3 (G Style)
Weight generation scheme         WeightScheme... Becke
Basis function cutoff            BFCut       ...    1.0000e-11
Integration weight cutoff        WCut        ...    1.0000e-14
Grids for H and He will be reduced by one unit

# of grid points (after initial pruning)     ...  11762 (   0.0 sec)
# of grid points (after weights+screening)   ...  10893 (   0.1 sec)
nearest neighbour list constructed           ...    0.0 sec
Grid point re-assignment to atoms done       ...    0.0 sec
Grid point division into batches done        ...    0.0 sec
Reduced shell lists constructed in    0.4 sec

Total number of grid points                  ...    10893
Total number of batches                      ...      182
Average number of points per batch           ...       59
Average number of grid points per atom       ...      474
Average number of shells per batch           ...    88.71 (47.69%)
Average number of basis functions per batch  ...   231.76 (49.52%)
Average number of large shells per batch     ...    62.09 (69.99%)
Average number of large basis fcns per batch ...   161.57 (69.72%)
Maximum spatial batch extension              ...  25.46, 19.94, 23.40 au
Average spatial batch extension              ...   5.44,  4.98,  5.31 au

Overlap Fitting                  UseSFitting ... on
Constructing numerical overlap ... done (      0.3 sec)
Inverting numerical overlap    ... done (      0.0 sec)
Obtaining analytic overlap     ... done (      0.0 sec)
Final contraction and storage  ... done (      0.0 sec)


General Integration Accuracy     IntAcc      ...  3.670
Radial Grid Type                 RadialGrid  ... Gauss-Chebyshev
Angular Grid (max. acc.)         AngularGrid ... Lebedev-50
Angular grid pruning method      GridPruning ... 3 (G Style)
Weight generation scheme         WeightScheme... Becke
Basis function cutoff            BFCut       ...    1.0000e-11
Integration weight cutoff        WCut        ...    1.0000e-14
Grids for H and He will be reduced by one unit

# of grid points (after initial pruning)     ...  14690 (   0.0 sec)
# of grid points (after weights+screening)   ...  13572 (   0.2 sec)
nearest neighbour list constructed           ...    0.0 sec
Grid point re-assignment to atoms done       ...    0.0 sec
Grid point division into batches done        ...    0.0 sec
Reduced shell lists constructed in    0.7 sec

Total number of grid points                  ...    13572
Total number of batches                      ...      223
Average number of points per batch           ...       60
Average number of grid points per atom       ...      590
Average number of shells per batch           ...    86.88 (46.71%)
Average number of basis functions per batch  ...   226.54 (48.41%)
Average number of large shells per batch     ...    60.62 (69.78%)
Average number of large basis fcns per batch ...   157.10 (69.35%)
Maximum spatial batch extension              ...  26.87, 20.69, 23.94 au
Average spatial batch extension              ...   5.08,  4.81,  5.01 au

Overlap Fitting                  UseSFitting ... on
Constructing numerical overlap ... done (      0.3 sec)
Inverting numerical overlap    ... done (      0.0 sec)
Obtaining analytic overlap     ... done (      0.0 sec)
Final contraction and storage  ... done (      0.0 sec)


General Integration Accuracy     IntAcc      ...  4.010
Radial Grid Type                 RadialGrid  ... Gauss-Chebyshev
Angular Grid (max. acc.)         AngularGrid ... Lebedev-110
Angular grid pruning method      GridPruning ... 3 (G Style)
Weight generation scheme         WeightScheme... Becke
Basis function cutoff            BFCut       ...    1.0000e-11
Integration weight cutoff        WCut        ...    1.0000e-14
Grids for H and He will be reduced by one unit

# of grid points (after initial pruning)     ...  27082 (   0.0 sec)
# of grid points (after weights+screening)   ...  25239 (   0.1 sec)
nearest neighbour list constructed           ...    0.0 sec
Grid point re-assignment to atoms done       ...    0.0 sec
Grid point division into batches done        ...    0.0 sec
Reduced shell lists constructed in    0.9 sec

Total number of grid points                  ...    25239
Total number of batches                      ...      404
Average number of points per batch           ...       62
Average number of grid points per atom       ...     1097
Average number of shells per batch           ...    82.33 (44.26%)
Average number of basis functions per batch  ...   214.14 (45.76%)
Average number of large shells per batch     ...    57.13 (69.39%)
Average number of large basis fcns per batch ...   147.80 (69.02%)
Maximum spatial batch extension              ...  28.61, 26.53, 26.87 au
Average spatial batch extension              ...   4.23,  4.14,  4.18 au

Overlap Fitting                  UseSFitting ... on
Constructing numerical overlap ... done (      0.5 sec)
Inverting numerical overlap    ... done (      0.0 sec)
Obtaining analytic overlap     ... done (      0.0 sec)
Final contraction and storage  ... done (      0.0 sec)

Time for X-Grid setup             =    3.697 sec
--------------
SCF ITERATIONS
--------------
ITER       Energy         Delta-E        Max-DP      RMS-DP      [F,P]     Damp
               ***  Starting incremental Fock matrix formation  ***
                      *** Initiating the SOSCF procedure ***
                      *** Re-Reading the Fockian *** 
                      *** Removing any level shift *** 
ITER      Energy       Delta-E        Grad      Rot      Max-DP    RMS-DP
  0  -3145.39754343 -3145.3975434250  0.000002  0.000002  0.000005  0.000000
               *** Restarting incremental Fock matrix formation ***
                  ***Gradient check signals convergence***
              ***Rediagonalizing the Fockian in SOSCF/NRSCF***

               *****************************************************
               *                     SUCCESS                       *
               *           SCF CONVERGED AFTER   1 CYCLES          *
               *****************************************************

Old exchange energy                            =   -110.363227854 Eh
New exchange energy                            =   -110.370271875 Eh
Exchange energy change after final integration =     -0.007044021 Eh
Total energy after final integration           =  -3145.404587446 Eh
Final COS-X integration done in                =    61.229 sec

----------------
TOTAL SCF ENERGY
----------------

Total Energy       :        -3145.40458745 Eh          -85590.81018 eV

Components:
Nuclear Repulsion  :         1710.34033122 Eh           46540.72650 eV
Electronic Energy  :        -4855.74491866 Eh         -132131.53667 eV

One Electron Energy:        -7825.49795556 Eh         -212942.62516 eV
Two Electron Energy:         2969.75303690 Eh           80811.08849 eV

Virial components:
Potential Energy   :        -6157.66176717 Eh         -167558.49519 eV
Kinetic Energy     :         3012.25717972 Eh           81967.68502 eV
Virial Ratio       :            2.04420187


DFT components:
N(Alpha)           :       81.000009041050 electrons
N(Beta)            :       81.000009041050 electrons
N(Total)           :      162.000018082099 electrons
E(X)               :      -97.944729949118 Eh       
E(C)               :       -4.612417586976 Eh       
E(XC)              :     -102.557147536094 Eh       

---------------
SCF CONVERGENCE
---------------

  Last Energy change         ...   -5.0386e-10  Tolerance :   1.0000e-08
  Last MAX-Density change    ...    1.4810e-13  Tolerance :   1.0000e-07
  Last RMS-Density change    ...    8.0265e-16  Tolerance :   5.0000e-09
  Last Orbital Gradient      ...    1.1468e-06  Tolerance :   1.0000e-05
  Last Orbital Rotation      ...    5.3333e-06  Tolerance :   1.0000e-05

             **** THE GBW FILE WAS UPDATED (PbCl6_MA2_mp2_sp_0.orca.gbw) ****
             **** DENSITY FILE WAS UPDATED (PbCl6_MA2_mp2_sp_0.orca.scfp.tmp) ****
             **** ENERGY FILE WAS UPDATED (PbCl6_MA2_mp2_sp_0.orca.en.tmp) ****
----------------
ORBITAL ENERGIES
----------------

  NO   OCC          E(Eh)            E(eV) 
   0   2.0000    -102.865673     -2799.1173 
   1   2.0000    -102.865628     -2799.1160 
   2   2.0000    -102.865503     -2799.1126 
   3   2.0000    -102.865452     -2799.1113 
   4   2.0000    -102.865226     -2799.1051 
   5   2.0000    -102.865211     -2799.1047 
   6   2.0000     -14.957621      -407.0176 
   7   2.0000     -14.957577      -407.0163 
   8   2.0000     -10.707337      -291.3615 
   9   2.0000     -10.707328      -291.3612 
  10   2.0000      -9.871980      -268.6302 
  11   2.0000      -9.871944      -268.6293 
  12   2.0000      -9.871834      -268.6263 
  13   2.0000      -9.871778      -268.6247 
  14   2.0000      -9.871594      -268.6197 
  15   2.0000      -9.871565      -268.6189 
  16   2.0000      -7.509985      -204.3571 
  17   2.0000      -7.509938      -204.3558 
  18   2.0000      -7.509816      -204.3525 
  19   2.0000      -7.509766      -204.3511 
  20   2.0000      -7.509531      -204.3447 
  21   2.0000      -7.509520      -204.3444 
  22   2.0000      -7.506992      -204.2756 
  23   2.0000      -7.506969      -204.2750 
  24   2.0000      -7.506849      -204.2717 
  25   2.0000      -7.506786      -204.2700 
  26   2.0000      -7.506641      -204.2661 
  27   2.0000      -7.506592      -204.2648 
  28   2.0000      -7.506507      -204.2624 
  29   2.0000      -7.506470      -204.2614 
  30   2.0000      -7.506362      -204.2585 
  31   2.0000      -7.506307      -204.2570 
  32   2.0000      -7.506121      -204.2519 
  33   2.0000      -7.506095      -204.2512 
  34   2.0000      -5.835907      -158.8031 
  35   2.0000      -3.608807       -98.2006 
  36   2.0000      -3.608075       -98.1807 
  37   2.0000      -3.608058       -98.1803 
  38   2.0000      -1.135285       -30.8927 
  39   2.0000      -1.135238       -30.8914 
  40   2.0000      -1.009475       -27.4692 
  41   2.0000      -1.009370       -27.4663 
  42   2.0000      -0.994978       -27.0747 
  43   2.0000      -0.993775       -27.0420 
  44   2.0000      -0.993579       -27.0366 
  45   2.0000      -0.903266       -24.5791 
  46   2.0000      -0.884461       -24.0674 
  47   2.0000      -0.880971       -23.9724 
  48   2.0000      -0.880859       -23.9694 
  49   2.0000      -0.862755       -23.4768 
  50   2.0000      -0.862562       -23.4715 
  51   2.0000      -0.856367       -23.3029 
  52   2.0000      -0.854268       -23.2458 
  53   2.0000      -0.662659       -18.0319 
  54   2.0000      -0.662363       -18.0238 
  55   2.0000      -0.662215       -18.0198 
  56   2.0000      -0.661892       -18.0110 
  57   2.0000      -0.597687       -16.2639 
  58   2.0000      -0.597627       -16.2623 
  59   2.0000      -0.573031       -15.5930 
  60   2.0000      -0.518185       -14.1005 
  61   2.0000      -0.518105       -14.0983 
  62   2.0000      -0.518011       -14.0958 
  63   2.0000      -0.517926       -14.0935 
  64   2.0000      -0.411712       -11.2033 
  65   2.0000      -0.411019       -11.1844 
  66   2.0000      -0.410915       -11.1816 
  67   2.0000      -0.374858       -10.2004 
  68   2.0000      -0.369284       -10.0487 
  69   2.0000      -0.369095       -10.0436 
  70   2.0000      -0.353430        -9.6173 
  71   2.0000      -0.352410        -9.5896 
  72   2.0000      -0.352218        -9.5843 
  73   2.0000      -0.346781        -9.4364 
  74   2.0000      -0.345540        -9.4026 
  75   2.0000      -0.345445        -9.4000 
  76   2.0000      -0.339432        -9.2364 
  77   2.0000      -0.339243        -9.2313 
  78   2.0000      -0.336939        -9.1686 
  79   2.0000      -0.336777        -9.1642 
  80   2.0000      -0.332019        -9.0347 
  81   0.0000      -0.122389        -3.3304 
  82   0.0000       0.039198         1.0666 
  83   0.0000       0.041205         1.1212 
  84   0.0000       0.082866         2.2549 
  85   0.0000       0.087368         2.3774 
  86   0.0000       0.087469         2.3802 
  87   0.0000       0.090143         2.4529 
  88   0.0000       0.094928         2.5831 
  89   0.0000       0.113869         3.0985 
  90   0.0000       0.114082         3.1043 
  91   0.0000       0.114792         3.1237 
  92   0.0000       0.115127         3.1328 
  93   0.0000       0.140747         3.8299 
  94   0.0000       0.142371         3.8741 
  95   0.0000       0.150063         4.0834 
  96   0.0000       0.151030         4.1097 
  97   0.0000       0.172188         4.6855 
  98   0.0000       0.174185         4.7398 
  99   0.0000       0.174753         4.7553 
 100   0.0000       0.176490         4.8025 
 101   0.0000       0.198346         5.3973 
 102   0.0000       0.219997         5.9864 
 103   0.0000       0.249013         6.7760 
 104   0.0000       0.249605         6.7921 
 105   0.0000       0.258297         7.0286 
 106   0.0000       0.259096         7.0504 
 107   0.0000       0.261376         7.1124 
 108   0.0000       0.268766         7.3135 
 109   0.0000       0.269235         7.3263 
 110   0.0000       0.282903         7.6982 
 111   0.0000       0.283261         7.7079 
 112   0.0000       0.303752         8.2655 
 113   0.0000       0.304229         8.2785 
 114   0.0000       0.315115         8.5747 
 115   0.0000       0.341066         9.2809 
 116   0.0000       0.341543         9.2938 
 117   0.0000       0.341816         9.3013 
 118   0.0000       0.369934        10.0664 
 119   0.0000       0.370556        10.0833 
 120   0.0000       0.377338        10.2679 
 121   0.0000       0.394169        10.7259 
 122   0.0000       0.398744        10.8504 
 123   0.0000       0.409604        11.1459 
 124   0.0000       0.410119        11.1599 
 125   0.0000       0.416827        11.3424 
 126   0.0000       0.424889        11.5618 
 127   0.0000       0.437159        11.8957 
 128   0.0000       0.438152        11.9227 
 129   0.0000       0.441858        12.0236 
 130   0.0000       0.456222        12.4144 
 131   0.0000       0.457187        12.4407 
 132   0.0000       0.457379        12.4459 
 133   0.0000       0.460077        12.5193 
 134   0.0000       0.460978        12.5439 
 135   0.0000       0.461131        12.5480 
 136   0.0000       0.480767        13.0823 
 137   0.0000       0.481239        13.0952 
 138   0.0000       0.481434        13.1005 
 139   0.0000       0.481559        13.1039 
 140   0.0000       0.482004        13.1160 
 141   0.0000       0.499064        13.5802 
 142   0.0000       0.499296        13.5865 
 143   0.0000       0.505524        13.7560 
 144   0.0000       0.505819        13.7640 
 145   0.0000       0.519257        14.1297 
 146   0.0000       0.520177        14.1547 
 147   0.0000       0.524424        14.2703 
 148   0.0000       0.524879        14.2827 
 149   0.0000       0.547041        14.8857 
 150   0.0000       0.557137        15.1605 
 151   0.0000       0.562030        15.2936 
 152   0.0000       0.587511        15.9870 
 153   0.0000       0.587618        15.9899 
 154   0.0000       0.596972        16.2444 
 155   0.0000       0.597134        16.2488 
 156   0.0000       0.598634        16.2897 
 157   0.0000       0.604408        16.4468 
 158   0.0000       0.606398        16.5009 
 159   0.0000       0.614611        16.7244 
 160   0.0000       0.617751        16.8099 
 161   0.0000       0.632220        17.2036 
 162   0.0000       0.633780        17.2460 
 163   0.0000       0.646473        17.5914 
 164   0.0000       0.655493        17.8369 
 165   0.0000       0.660756        17.9801 
 166   0.0000       0.661692        18.0056 
 167   0.0000       0.668929        18.2025 
 168   0.0000       0.681888        18.5551 
 169   0.0000       0.714665        19.4470 
 170   0.0000       0.715173        19.4609 
 171   0.0000       0.717131        19.5141 
 172   0.0000       0.718901        19.5623 
 173   0.0000       0.720261        19.5993 
 174   0.0000       0.721914        19.6443 
 175   0.0000       0.735197        20.0057 
 176   0.0000       0.735742        20.0206 
 177   0.0000       0.737780        20.0760 
 178   0.0000       0.768143        20.9022 
 179   0.0000       0.770465        20.9654 
 180   0.0000       0.774499        21.0752 
 181   0.0000       0.775951        21.1147 
 182   0.0000       0.799136        21.7456 
 183   0.0000       0.803617        21.8675 
 184   0.0000       0.820795        22.3350 
 185   0.0000       0.838001        22.8032 
 186   0.0000       0.846322        23.0296 
 187   0.0000       0.846573        23.0364 
 188   0.0000       0.861720        23.4486 
 189   0.0000       0.902885        24.5688 
 190   0.0000       0.902924        24.5698 
 191   0.0000       0.903997        24.5990 
 192   0.0000       0.908489        24.7212 
 193   0.0000       0.909302        24.7434 
 194   0.0000       0.916659        24.9436 
 195   0.0000       0.917872        24.9766 
 196   0.0000       0.931497        25.3473 
 197   0.0000       0.932978        25.3876 
 198   0.0000       0.981549        26.7093 
 199   0.0000       0.981810        26.7164 
 200   0.0000       0.999346        27.1936 
 201   0.0000       1.033721        28.1290 
 202   0.0000       1.056328        28.7441 
 203   0.0000       1.086008        29.5518 
 204   0.0000       1.139040        30.9949 
 205   0.0000       1.139637        31.0111 
 206   0.0000       1.170059        31.8389 
 207   0.0000       1.171422        31.8760 
 208   0.0000       1.206196        32.8223 
 209   0.0000       1.206433        32.8287 
 210   0.0000       1.209225        32.9047 
 211   0.0000       1.209313        32.9071 
 212   0.0000       1.292247        35.1638 
 213   0.0000       1.294785        35.2329 
 214   0.0000       1.295060        35.2404 
 215   0.0000       1.302137        35.4330 
 216   0.0000       1.303514        35.4704 
 217   0.0000       1.328933        36.1621 
 218   0.0000       1.365677        37.1620 
 219   0.0000       1.371467        37.3195 
 220   0.0000       1.382147        37.6101 
 221   0.0000       1.387706        37.7614 
 222   0.0000       1.403996        38.2047 
 223   0.0000       1.498065        40.7644 
 224   0.0000       1.501168        40.8489 
 225   0.0000       1.566985        42.6398 
 226   0.0000       1.567075        42.6423 
 227   0.0000       1.593673        43.3661 
 228   0.0000       1.595242        43.4087 
 229   0.0000       1.596730        43.4492 
 230   0.0000       1.597435        43.4684 
 231   0.0000       1.600413        43.5494 
 232   0.0000       1.602611        43.6093 
 233   0.0000       1.620344        44.0918 
 234   0.0000       1.625388        44.2291 
 235   0.0000       1.739330        47.3296 
 236   0.0000       1.742313        47.4107 
 237   0.0000       1.780793        48.4578 
 238   0.0000       1.781125        48.4669 
 239   0.0000       1.788781        48.6752 
 240   0.0000       1.789158        48.6855 
 241   0.0000       1.874403        51.0051 
 242   0.0000       1.892230        51.4902 
 243   0.0000       1.892723        51.5036 
 244   0.0000       1.897802        51.6418 
 245   0.0000       1.898309        51.6556 
 246   0.0000       1.900892        51.7259 
 247   0.0000       1.910565        51.9891 
 248   0.0000       1.910887        51.9979 
 249   0.0000       1.914674        52.1009 
 250   0.0000       1.949894        53.0593 
 251   0.0000       1.950750        53.0826 
 252   0.0000       1.951751        53.1099 
 253   0.0000       1.959907        53.3318 
 254   0.0000       1.960118        53.3375 
 255   0.0000       1.963127        53.4194 
 256   0.0000       1.963757        53.4365 
 257   0.0000       1.964660        53.4611 
 258   0.0000       1.966442        53.5096 
 259   0.0000       1.991587        54.1938 
 260   0.0000       1.993044        54.2335 
 261   0.0000       2.005116        54.5620 
 262   0.0000       2.007046        54.6145 
 263   0.0000       2.011443        54.7342 
 264   0.0000       2.012195        54.7546 
 265   0.0000       2.028662        55.2027 
 266   0.0000       2.028830        55.2073 
 267   0.0000       2.034447        55.3601 
 268   0.0000       2.046348        55.6839 
 269   0.0000       2.047437        55.7136 
 270   0.0000       2.064353        56.1739 
 271   0.0000       2.080515        56.6137 
 272   0.0000       2.082824        56.6765 
 273   0.0000       2.088007        56.8176 
 274   0.0000       2.091873        56.9227 
 275   0.0000       2.092781        56.9475 
 276   0.0000       2.104522        57.2669 
 277   0.0000       2.104837        57.2755 
 278   0.0000       2.120803        57.7100 
 279   0.0000       2.121483        57.7285 
 280   0.0000       2.123780        57.7910 
 281   0.0000       2.144449        58.3534 
 282   0.0000       2.145931        58.3938 
 283   0.0000       2.154273        58.6207 
 284   0.0000       2.155319        58.6492 
 285   0.0000       2.162345        58.8404 
 286   0.0000       2.171730        59.0958 
 287   0.0000       2.184986        59.4565 
 288   0.0000       2.185657        59.4748 
 289   0.0000       2.206075        60.0303 
 290   0.0000       2.213763        60.2396 
 291   0.0000       2.225575        60.5610 
 292   0.0000       2.226295        60.5806 
 293   0.0000       2.226456        60.5849 
 294   0.0000       2.227552        60.6148 
 295   0.0000       2.228324        60.6358 
 296   0.0000       2.230911        60.7062 
 297   0.0000       2.232238        60.7423 
 298   0.0000       2.232424        60.7473 
 299   0.0000       2.232756        60.7564 
 300   0.0000       2.232900        60.7603 
 301   0.0000       2.238753        60.9196 
 302   0.0000       2.239926        60.9515 
 303   0.0000       2.242433        61.0197 
 304   0.0000       2.242881        61.0319 
 305   0.0000       2.250944        61.2513 
 306   0.0000       2.251861        61.2762 
 307   0.0000       2.252915        61.3049 
 308   0.0000       2.253511        61.3211 
 309   0.0000       2.253939        61.3328 
 310   0.0000       2.263977        61.6059 
 311   0.0000       2.275540        61.9206 
 312   0.0000       2.276254        61.9400 
 313   0.0000       2.282146        62.1004 
 314   0.0000       2.295203        62.4556 
 315   0.0000       2.324383        63.2497 
 316   0.0000       2.324482        63.2524 
 317   0.0000       2.324575        63.2549 
 318   0.0000       2.324871        63.2629 
 319   0.0000       2.346139        63.8417 
 320   0.0000       2.363233        64.3068 
 321   0.0000       2.363642        64.3180 
 322   0.0000       2.363760        64.3212 
 323   0.0000       2.363910        64.3253 
 324   0.0000       2.381230        64.7966 
 325   0.0000       2.382146        64.8215 
 326   0.0000       2.384378        64.8822 
 327   0.0000       2.386435        64.9382 
 328   0.0000       2.394398        65.1549 
 329   0.0000       2.396283        65.2062 
 330   0.0000       2.421069        65.8806 
 331   0.0000       2.451758        66.7157 
 332   0.0000       2.452028        66.7231 
 333   0.0000       2.458041        66.8867 
 334   0.0000       2.469973        67.2114 
 335   0.0000       2.471189        67.2445 
 336   0.0000       2.476069        67.3773 
 337   0.0000       2.505817        68.1867 
 338   0.0000       2.506067        68.1936 
 339   0.0000       2.512175        68.3598 
 340   0.0000       2.512648        68.3726 
 341   0.0000       2.517161        68.4954 
 342   0.0000       2.523338        68.6635 
 343   0.0000       2.523478        68.6673 
 344   0.0000       2.526972        68.7624 
 345   0.0000       2.552865        69.4670 
 346   0.0000       2.555356        69.5348 
 347   0.0000       2.558373        69.6169 
 348   0.0000       2.577298        70.1318 
 349   0.0000       2.580331        70.2144 
 350   0.0000       2.583464        70.2996 
 351   0.0000       2.583699        70.3060 
 352   0.0000       2.599914        70.7472 
 353   0.0000       2.602682        70.8226 
 354   0.0000       2.617466        71.2249 
 355   0.0000       2.617978        71.2388 
 356   0.0000       2.656529        72.2878 
 357   0.0000       2.657085        72.3030 
 358   0.0000       2.658034        72.3288 
 359   0.0000       2.658380        72.3382 
 360   0.0000       2.686823        73.1122 
 361   0.0000       2.689699        73.1904 
 362   0.0000       2.690043        73.1998 
 363   0.0000       2.701153        73.5021 
 364   0.0000       2.702814        73.5473 
 365   0.0000       2.742443        74.6257 
 366   0.0000       2.743621        74.6577 
 367   0.0000       2.777504        75.5797 
 368   0.0000       2.782121        75.7053 
 369   0.0000       2.807407        76.3934 
 370   0.0000       2.808691        76.4284 
 371   0.0000       2.810184        76.4690 
 372   0.0000       2.811557        76.5063 
 373   0.0000       2.819535        76.7235 
 374   0.0000       2.874196        78.2108 
 375   0.0000       3.027491        82.3822 
 376   0.0000       3.029625        82.4403 
 377   0.0000       3.133723        85.2729 
 378   0.0000       3.134381        85.2908 
 379   0.0000       3.135560        85.3229 
 380   0.0000       3.135985        85.3345 
 381   0.0000       3.182812        86.6087 
 382   0.0000       3.184391        86.6517 
 383   0.0000       3.244398        88.2845 
 384   0.0000       3.246819        88.3504 
 385   0.0000       3.248768        88.4035 
 386   0.0000       3.249619        88.4266 
 387   0.0000       3.250593        88.4531 
 388   0.0000       3.296767        89.7096 
 389   0.0000       3.311337        90.1061 
 390   0.0000       3.397539        92.4517 
 391   0.0000       3.397654        92.4549 
 392   0.0000       3.437471        93.5383 
 393   0.0000       3.562267        96.9342 
 394   0.0000       3.563384        96.9646 
 395   0.0000       3.587167        97.6118 
 396   0.0000       3.587857        97.6306 
 397   0.0000       3.588172        97.6391 
 398   0.0000       3.589061        97.6633 
 399   0.0000       3.774777       102.7169 
 400   0.0000       3.775237       102.7294 
 401   0.0000       3.776530       102.7646 
 402   0.0000       3.777002       102.7775 
 403   0.0000       3.927616       106.8759 
 404   0.0000       3.928635       106.9036 
 405   0.0000       4.202774       114.3633 
 406   0.0000       4.204157       114.4009 
 407   0.0000       4.204918       114.4216 
 408   0.0000       4.206730       114.4709 
 409   0.0000       4.407240       119.9271 
 410   0.0000       4.407413       119.9318 
 411   0.0000       4.450940       121.1162 
 412   0.0000       4.451584       121.1338 
 413   0.0000       4.852256       132.0366 
 414   0.0000       4.852409       132.0408 
 415   0.0000       4.852656       132.0475 
 416   0.0000       4.852919       132.0546 
 417   0.0000       4.962202       135.0284 
 418   0.0000       4.962872       135.0466 
 419   0.0000       4.963408       135.0612 
 420   0.0000       4.963878       135.0740 
 421   0.0000       5.085688       138.3886 
 422   0.0000       5.093406       138.5986 
 423   0.0000       5.121124       139.3529 
 424   0.0000       5.121950       139.3753 
 425   0.0000       5.122485       139.3899 
 426   0.0000       5.123270       139.4113 
 427   0.0000       5.324836       144.8961 
 428   0.0000       5.329230       145.0157 
 429   0.0000       5.528372       150.4347 
 430   0.0000       5.529545       150.4666 
 431   0.0000       5.532153       150.5375 
 432   0.0000       5.533101       150.5633 
 433   0.0000       5.860117       159.4619 
 434   0.0000       5.861105       159.4888 
 435   0.0000      11.030354       300.1512 
 436   0.0000      11.030451       300.1538 
 437   0.0000      11.055089       300.8243 
 438   0.0000      11.081476       301.5423 
 439   0.0000      11.084552       301.6260 
 440   0.0000      11.084657       301.6289 
 441   0.0000      11.086963       301.6916 
 442   0.0000      11.103701       302.1471 
 443   0.0000      11.125827       302.7491 
 444   0.0000      11.125988       302.7535 
 445   0.0000      11.129992       302.8625 
 446   0.0000      11.157404       303.6084 
 447   0.0000      11.158023       303.6252 
 448   0.0000      11.164930       303.8132 
 449   0.0000      11.165202       303.8206 
 450   0.0000      11.227601       305.5186 
 451   0.0000      11.228538       305.5441 
 452   0.0000      11.276456       306.8480 
 453   0.0000      22.661368       616.6472 
 454   0.0000      22.665270       616.7533 
 455   0.0000      25.348348       689.7636 
 456   0.0000      25.354915       689.9423 
 457   0.0000      25.371448       690.3922 
 458   0.0000      25.377532       690.5578 
 459   0.0000      25.482480       693.4135 
 460   0.0000      25.625605       697.3082 
 461   0.0000      32.378870       881.0739 
 462   0.0000      32.387036       881.2960 
 463   0.0000      35.683881       971.0078 
 464   0.0000      35.804104       974.2792 
 465   0.0000      35.804484       974.2895 
 466   0.0000      35.919325       977.4145 
 467   0.0000     123.606661      3363.5082 

                    ********************************
                    * MULLIKEN POPULATION ANALYSIS *
                    ********************************

-----------------------
MULLIKEN ATOMIC CHARGES
-----------------------
   0 C :   -0.254889
   1 N :   -0.286188
   2 H :    0.157561
   3 H :    0.158017
   4 H :    0.158458
   5 H :    0.281264
   6 H :    0.280392
   7 H :    0.278606
   8 Pb:    1.164299
   9 Cl:   -0.450949
  10 Cl:   -0.452795
  11 Cl:   -0.451614
  12 Cl:   -0.451300
  13 Cl:   -0.451819
  14 Cl:   -0.452204
  15 N :   -0.286178
  16 C :   -0.254842
  17 H :    0.280743
  18 H :    0.281440
  19 H :    0.158551
  20 H :    0.158159
  21 H :    0.157219
  22 H :    0.278068
Sum of atomic charges:   -0.0000000

--------------------------------
MULLIKEN REDUCED ORBITAL CHARGES
--------------------------------
  0 C s       :     3.274234  s :     3.274234
      pz      :     1.004956  p :     2.905420
      px      :     0.983502
      py      :     0.916962
      dz2     :     0.006131  d :     0.069245
      dxz     :     0.018292
      dyz     :     0.017717
      dx2y2   :     0.008787
      dxy     :     0.018318
      f0      :     0.000305  f :     0.005989
      f+1     :     0.000534
      f-1     :     0.000686
      f+2     :     0.000608
      f-2     :     0.002519
      f+3     :     0.000626
      f-3     :     0.000712
  1 N s       :     3.409185  s :     3.409185
      pz      :     1.286972  p :     3.828500
      px      :     1.280883
      py      :     1.260645
      dz2     :     0.004098  d :     0.046342
      dxz     :     0.012399
      dyz     :     0.011565
      dx2y2   :     0.006628
      dxy     :     0.011653
      f0      :     0.000111  f :     0.002160
      f+1     :     0.000185
      f-1     :     0.000187
      f+2     :     0.000192
      f-2     :     0.001083
      f+3     :     0.000201
      f-3     :     0.000201
  2 H s       :     0.820724  s :     0.820724
      pz      :     0.008547  p :     0.021716
      px      :     0.008046
      py      :     0.005123
  3 H s       :     0.820266  s :     0.820266
      pz      :     0.006650  p :     0.021717
      px      :     0.007018
      py      :     0.008048
  4 H s       :     0.819821  s :     0.819821
      pz      :     0.007718  p :     0.021721
      px      :     0.007139
      py      :     0.006864
  5 H s       :     0.677993  s :     0.677993
      pz      :     0.010606  p :     0.040742
      px      :     0.014755
      py      :     0.015380
  6 H s       :     0.678627  s :     0.678627
      pz      :     0.013437  p :     0.040981
      px      :     0.009601
      py      :     0.017943
  7 H s       :     0.680253  s :     0.680253
      pz      :     0.017366  p :     0.041140
      px      :     0.016734
      py      :     0.007040
  8 Pbs       :     3.240031  s :     3.240031
      pz      :     2.409157  p :     7.228914
      px      :     2.410113
      py      :     2.409643
      dz2     :     2.059260  d :    10.247712
      dxz     :     2.040166
      dyz     :     2.043248
      dx2y2   :     2.062507
      dxy     :     2.042530
      f0      :     0.027282  f :     0.119045
      f+1     :     0.017341
      f-1     :     0.018362
      f+2     :     0.012111
      f-2     :     0.001103
      f+3     :     0.021483
      f-3     :     0.021363
  9 Cls       :     5.962995  s :     5.962995
      pz      :     3.945448  p :    11.470277
      px      :     3.597035
      py      :     3.927795
      dz2     :     0.003073  d :     0.016847
      dxz     :     0.001842
      dyz     :     0.001656
      dx2y2   :     0.008476
      dxy     :     0.001801
      f0      :     0.000071  f :     0.000829
      f+1     :     0.000207
      f-1     :     0.000031
      f+2     :     0.000100
      f-2     :     0.000013
      f+3     :     0.000300
      f-3     :     0.000108
 10 Cls       :     5.962974  s :     5.962974
      pz      :     3.933911  p :    11.472202
      px      :     3.938251
      py      :     3.600040
      dz2     :     0.003059  d :     0.016796
      dxz     :     0.001909
      dyz     :     0.002399
      dx2y2   :     0.007546
      dxy     :     0.001883
      f0      :     0.000069  f :     0.000823
      f+1     :     0.000042
      f-1     :     0.000167
      f+2     :     0.000122
      f-2     :     0.000019
      f+3     :     0.000115
      f-3     :     0.000288
 11 Cls       :     5.962968  s :     5.962968
      pz      :     3.602458  p :    11.470991
      px      :     3.941701
      py      :     3.926832
      dz2     :     0.010568  d :     0.016827
      dxz     :     0.001919
      dyz     :     0.002042
      dx2y2   :     0.000683
      dxy     :     0.001615
      f0      :     0.000457  f :     0.000829
      f+1     :     0.000119
      f-1     :     0.000153
      f+2     :     0.000022
      f-2     :     0.000017
      f+3     :     0.000037
      f-3     :     0.000024
 12 Cls       :     5.963026  s :     5.963026
      pz      :     3.945352  p :    11.470630
      px      :     3.595997
      py      :     3.929281
      dz2     :     0.003078  d :     0.016812
      dxz     :     0.001845
      dyz     :     0.001613
      dx2y2   :     0.008472
      dxy     :     0.001804
      f0      :     0.000070  f :     0.000832
      f+1     :     0.000208
      f-1     :     0.000030
      f+2     :     0.000099
      f-2     :     0.000012
      f+3     :     0.000301
      f-3     :     0.000110
 13 Cls       :     5.962990  s :     5.962990
      pz      :     3.601993  p :    11.471195
      px      :     3.941992
      py      :     3.927211
      dz2     :     0.010566  d :     0.016803
      dxz     :     0.001921
      dyz     :     0.002050
      dx2y2   :     0.000679
      dxy     :     0.001587
      f0      :     0.000458  f :     0.000831
      f+1     :     0.000120
      f-1     :     0.000154
      f+2     :     0.000022
      f-2     :     0.000017
      f+3     :     0.000036
      f-3     :     0.000023
 14 Cls       :     5.962934  s :     5.962934
      pz      :     3.933417  p :    11.471588
      px      :     3.936622
      py      :     3.601549
      dz2     :     0.003056  d :     0.016862
      dxz     :     0.001999
      dyz     :     0.002393
      dx2y2   :     0.007529
      dxy     :     0.001885
      f0      :     0.000070  f :     0.000819
      f+1     :     0.000044
      f-1     :     0.000166
      f+2     :     0.000122
      f-2     :     0.000019
      f+3     :     0.000113
      f-3     :     0.000285
 15 N s       :     3.409027  s :     3.409027
      pz      :     1.288589  p :     3.828629
      px      :     1.282780
      py      :     1.257260
      dz2     :     0.004076  d :     0.046362
      dxz     :     0.012374
      dyz     :     0.011471
      dx2y2   :     0.006728
      dxy     :     0.011713
      f0      :     0.000110  f :     0.002160
      f+1     :     0.000191
      f-1     :     0.000191
      f+2     :     0.000195
      f-2     :     0.001055
      f+3     :     0.000210
      f-3     :     0.000208
 16 C s       :     3.274035  s :     3.274035
      pz      :     1.009009  p :     2.905548
      px      :     0.989220
      py      :     0.907320
      dz2     :     0.006181  d :     0.069263
      dxz     :     0.018205
      dyz     :     0.017515
      dx2y2   :     0.009002
      dxy     :     0.018361
      f0      :     0.000303  f :     0.005995
      f+1     :     0.000536
      f-1     :     0.000706
      f+2     :     0.000609
      f-2     :     0.002454
      f+3     :     0.000643
      f-3     :     0.000744
 17 H s       :     0.678460  s :     0.678460
      pz      :     0.013124  p :     0.040797
      px      :     0.009809
      py      :     0.017864
 18 H s       :     0.677940  s :     0.677940
      pz      :     0.010754  p :     0.040620
      px      :     0.014606
      py      :     0.015259
 19 H s       :     0.819727  s :     0.819727
      pz      :     0.007846  p :     0.021722
      px      :     0.007084
      py      :     0.006792
 20 H s       :     0.820124  s :     0.820124
      pz      :     0.006463  p :     0.021717
      px      :     0.007211
      py      :     0.008043
 21 H s       :     0.821078  s :     0.821078
      pz      :     0.008733  p :     0.021703
      px      :     0.008089
      py      :     0.004881
 22 H s       :     0.680476  s :     0.680476
      pz      :     0.017728  p :     0.041456
      px      :     0.016928
      py      :     0.006801


                     *******************************
                     * LOEWDIN POPULATION ANALYSIS *
                     *******************************

----------------------
LOEWDIN ATOMIC CHARGES
----------------------
   0 C :   -0.276314
   1 N :    0.084937
   2 H :    0.124668
   3 H :    0.124720
   4 H :    0.124876
   5 H :    0.164932
   6 H :    0.164225
   7 H :    0.164025
   8 Pb:   -0.446526
   9 Cl:   -0.150347
  10 Cl:   -0.152055
  11 Cl:   -0.150390
  12 Cl:   -0.150255
  13 Cl:   -0.150428
  14 Cl:   -0.152095
  15 N :    0.084866
  16 C :   -0.276275
  17 H :    0.164861
  18 H :    0.165363
  19 H :    0.124952
  20 H :    0.124857
  21 H :    0.124425
  22 H :    0.162979

-------------------------------
LOEWDIN REDUCED ORBITAL CHARGES
-------------------------------
  0 C s       :     2.853760  s :     2.853760
      pz      :     1.051161  p :     3.083027
      px      :     1.037411
      py      :     0.994455
      dz2     :     0.026069  d :     0.302602
      dxz     :     0.077694
      dyz     :     0.078583
      dx2y2   :     0.037398
      dxy     :     0.082858
      f0      :     0.004642  f :     0.036924
      f+1     :     0.003889
      f-1     :     0.005885
      f+2     :     0.003646
      f-2     :     0.006783
      f+3     :     0.005563
      f-3     :     0.006516
  1 N s       :     2.999603  s :     2.999603
      pz      :     1.253074  p :     3.750382
      px      :     1.251386
      py      :     1.245922
      dz2     :     0.014173  d :     0.155744
      dxz     :     0.040956
      dyz     :     0.038948
      dx2y2   :     0.021995
      dxy     :     0.039672
      f0      :     0.001236  f :     0.009334
      f+1     :     0.001126
      f-1     :     0.001468
      f+2     :     0.000951
      f-2     :     0.001603
      f+3     :     0.001304
      f-3     :     0.001644
  2 H s       :     0.813191  s :     0.813191
      pz      :     0.023685  p :     0.062141
      px      :     0.022279
      py      :     0.016177
  3 H s       :     0.813117  s :     0.813117
      pz      :     0.018932  p :     0.062162
      px      :     0.021417
      py      :     0.021813
  4 H s       :     0.812953  s :     0.812953
      pz      :     0.023282  p :     0.062171
      px      :     0.020013
      py      :     0.018877
  5 H s       :     0.713420  s :     0.713420
      pz      :     0.035392  p :     0.121647
      px      :     0.042609
      py      :     0.043646
  6 H s       :     0.713415  s :     0.713415
      pz      :     0.038936  p :     0.122359
      px      :     0.032038
      py      :     0.051385
  7 H s       :     0.713554  s :     0.713554
      pz      :     0.050718  p :     0.122420
      px      :     0.048462
      py      :     0.023240
  8 Pbs       :     3.069351  s :     3.069351
      pz      :     2.616225  p :     7.845147
      px      :     2.615784
      py      :     2.613138
      dz2     :     2.403381  d :    11.235771
      dxz     :     2.134736
      dyz     :     2.153167
      dx2y2   :     2.408776
      dxy     :     2.135711
      f0      :     0.070732  f :     0.296257
      f+1     :     0.042426
      f-1     :     0.044953
      f+2     :     0.027520
      f-2     :     0.002401
      f+3     :     0.054451
      f-3     :     0.053773
  9 Cls       :     5.765367  s :     5.765367
      pz      :     3.901133  p :    11.358332
      px      :     3.577515
      py      :     3.879685
      dz2     :     0.004792  d :     0.025304
      dxz     :     0.001813
      dyz     :     0.002726
      dx2y2   :     0.014106
      dxy     :     0.001867
      f0      :     0.000074  f :     0.001344
      f+1     :     0.000359
      f-1     :     0.000049
      f+2     :     0.000167
      f-2     :     0.000012
      f+3     :     0.000543
      f-3     :     0.000141
 10 Cls       :     5.765574  s :     5.765574
      pz      :     3.887491  p :    11.359939
      px      :     3.891770
      py      :     3.580679
      dz2     :     0.004566  d :     0.025206
      dxz     :     0.002901
      dyz     :     0.003070
      dx2y2   :     0.012491
      dxy     :     0.002178
      f0      :     0.000086  f :     0.001336
      f+1     :     0.000084
      f-1     :     0.000290
      f+2     :     0.000199
      f-2     :     0.000032
      f+3     :     0.000129
      f-3     :     0.000516
 11 Cls       :     5.765291  s :     5.765291
      pz      :     3.582152  p :    11.358533
      px      :     3.896120
      py      :     3.880261
      dz2     :     0.017465  d :     0.025225
      dxz     :     0.001895
      dyz     :     0.002312
      dx2y2   :     0.000832
      dxy     :     0.002722
      f0      :     0.000820  f :     0.001341
      f+1     :     0.000138
      f-1     :     0.000215
      f+2     :     0.000028
      f-2     :     0.000018
      f+3     :     0.000077
      f-3     :     0.000045
 12 Cls       :     5.765341  s :     5.765341
      pz      :     3.901125  p :    11.358341
      px      :     3.576552
      py      :     3.880664
      dz2     :     0.004804  d :     0.025229
      dxz     :     0.001817
      dyz     :     0.002650
      dx2y2   :     0.014086
      dxy     :     0.001871
      f0      :     0.000073  f :     0.001344
      f+1     :     0.000360
      f-1     :     0.000049
      f+2     :     0.000163
      f-2     :     0.000012
      f+3     :     0.000546
      f-3     :     0.000141
 13 Cls       :     5.765307  s :     5.765307
      pz      :     3.581737  p :    11.358606
      px      :     3.896399
      py      :     3.880470
      dz2     :     0.017455  d :     0.025176
      dxz     :     0.001897
      dyz     :     0.002328
      dx2y2   :     0.000828
      dxy     :     0.002669
      f0      :     0.000821  f :     0.001340
      f+1     :     0.000138
      f-1     :     0.000217
      f+2     :     0.000028
      f-2     :     0.000018
      f+3     :     0.000075
      f-3     :     0.000044
 14 Cls       :     5.765595  s :     5.765595
      pz      :     3.887104  p :    11.359821
      px      :     3.890545
      py      :     3.582172
      dz2     :     0.004556  d :     0.025341
      dxz     :     0.003060
      dyz     :     0.003062
      dx2y2   :     0.012478
      dxy     :     0.002185
      f0      :     0.000087  f :     0.001338
      f+1     :     0.000089
      f-1     :     0.000287
      f+2     :     0.000204
      f-2     :     0.000032
      f+3     :     0.000129
      f-3     :     0.000510
 15 N s       :     2.999631  s :     2.999631
      pz      :     1.253596  p :     3.750434
      px      :     1.251986
      py      :     1.244852
      dz2     :     0.014118  d :     0.155736
      dxz     :     0.040773
      dyz     :     0.038638
      dx2y2   :     0.022372
      dxy     :     0.039835
      f0      :     0.001202  f :     0.009334
      f+1     :     0.001103
      f-1     :     0.001510
      f+2     :     0.000953
      f-2     :     0.001588
      f+3     :     0.001284
      f-3     :     0.001693
 16 C s       :     2.853729  s :     2.853729
      pz      :     1.053720  p :     3.083040
      px      :     1.041002
      py      :     0.988317
      dz2     :     0.026335  d :     0.302582
      dxz     :     0.076993
      dyz     :     0.077777
      dx2y2   :     0.038522
      dxy     :     0.082955
      f0      :     0.004527  f :     0.036925
      f+1     :     0.003717
      f-1     :     0.006091
      f+2     :     0.003645
      f-2     :     0.006668
      f+3     :     0.005559
      f-3     :     0.006718
 17 H s       :     0.713446  s :     0.713446
      pz      :     0.037937  p :     0.121693
      px      :     0.032741
      py      :     0.051014
 18 H s       :     0.713412  s :     0.713412
      pz      :     0.035866  p :     0.121225
      px      :     0.042174
      py      :     0.043186
 19 H s       :     0.812871  s :     0.812871
      pz      :     0.023616  p :     0.062178
      px      :     0.019921
      py      :     0.018640
 20 H s       :     0.812973  s :     0.812973
      pz      :     0.018501  p :     0.062170
      px      :     0.021930
      py      :     0.021739
 21 H s       :     0.813441  s :     0.813441
      pz      :     0.024192  p :     0.062134
      px      :     0.022438
      py      :     0.015503
 22 H s       :     0.713489  s :     0.713489
      pz      :     0.052003  p :     0.123533
      px      :     0.049177
      py      :     0.022352


                      *****************************
                      * MAYER POPULATION ANALYSIS *
                      *****************************

  NA   - Mulliken gross atomic population
  ZA   - Total nuclear charge
  QA   - Mulliken gross atomic charge
  VA   - Mayer's total valence
  BVA  - Mayer's bonded valence
  FA   - Mayer's free valence

  ATOM       NA         ZA         QA         VA         BVA        FA
  0 C      6.2549     6.0000    -0.2549     3.8388     3.8388    -0.0000
  1 N      7.2862     7.0000    -0.2862     3.3205     3.3205    -0.0000
  2 H      0.8424     1.0000     0.1576     0.9614     0.9614     0.0000
  3 H      0.8420     1.0000     0.1580     0.9611     0.9611    -0.0000
  4 H      0.8415     1.0000     0.1585     0.9610     0.9610     0.0000
  5 H      0.7187     1.0000     0.2813     0.9812     0.9812    -0.0000
  6 H      0.7196     1.0000     0.2804     0.9829     0.9829    -0.0000
  7 H      0.7214     1.0000     0.2786     0.9842     0.9842     0.0000
  8 Pb    20.8357    22.0000     1.1643     3.6741     3.6741     0.0000
  9 Cl    17.4509    17.0000    -0.4509     0.8949     0.8949     0.0000
 10 Cl    17.4528    17.0000    -0.4528     0.8927     0.8927    -0.0000
 11 Cl    17.4516    17.0000    -0.4516     0.8933     0.8933     0.0000
 12 Cl    17.4513    17.0000    -0.4513     0.8938     0.8938     0.0000
 13 Cl    17.4518    17.0000    -0.4518     0.8926     0.8926     0.0000
 14 Cl    17.4522    17.0000    -0.4522     0.8947     0.8947    -0.0000
 15 N      7.2862     7.0000    -0.2862     3.3208     3.3208    -0.0000
 16 C      6.2548     6.0000    -0.2548     3.8391     3.8391    -0.0000
 17 H      0.7193     1.0000     0.2807     0.9815     0.9815    -0.0000
 18 H      0.7186     1.0000     0.2814     0.9804     0.9804    -0.0000
 19 H      0.8414     1.0000     0.1586     0.9611     0.9611    -0.0000
 20 H      0.8418     1.0000     0.1582     0.9612     0.9612     0.0000
 21 H      0.8428     1.0000     0.1572     0.9613     0.9613    -0.0000
 22 H      0.7219     1.0000     0.2781     0.9865     0.9865     0.0000

  Mayer bond orders larger than 0.1
B(  0-C ,  1-N ) :   0.9081 B(  0-C ,  2-H ) :   0.9700 B(  0-C ,  3-H ) :   0.9696 
B(  0-C ,  4-H ) :   0.9695 B(  1-N ,  5-H ) :   0.8292 B(  1-N ,  6-H ) :   0.8272 
B(  1-N ,  7-H ) :   0.8282 B(  5-H , 11-Cl) :   0.1487 B(  6-H ,  9-Cl) :   0.1529 
B(  7-H , 10-Cl) :   0.1528 B(  8-Pb,  9-Cl) :   0.6114 B(  8-Pb, 10-Cl) :   0.6102 
B(  8-Pb, 11-Cl) :   0.6125 B(  8-Pb, 12-Cl) :   0.6129 B(  8-Pb, 13-Cl) :   0.6133 
B(  8-Pb, 14-Cl) :   0.6078 B( 12-Cl, 17-H ) :   0.1487 B( 13-Cl, 18-H ) :   0.1463 
B( 14-Cl, 22-H ) :   0.1596 B( 15-N , 16-C ) :   0.9085 B( 15-N , 17-H ) :   0.8293 
B( 15-N , 18-H ) :   0.8304 B( 15-N , 22-H ) :   0.8248 B( 16-C , 19-H ) :   0.9695 
B( 16-C , 20-H ) :   0.9696 B( 16-C , 21-H ) :   0.9700 

-------
TIMINGS
-------

Total SCF time: 0 days 0 hours 2 min 39 sec 

Total time                  ....     159.621 sec
Sum of individual times     ....      96.856 sec  ( 60.7%)

Fock matrix formation       ....      83.409 sec  ( 52.3%)
  Coulomb formation         ....      72.783 sec  ( 87.3% of F)
  Split-RI-J                ....       4.903 sec  (  5.9% of F)
  Chain of spheres X        ....     129.099 sec  (154.8% of F)
  XC integration            ....      10.761 sec  ( 12.9% of F)
    Basis function eval.    ....       4.967 sec  ( 46.2% of XC)
    Density eval.           ....       2.109 sec  ( 19.6% of XC)
    XC-Functional eval.     ....       0.438 sec  (  4.1% of XC)
    XC-Potential eval.      ....       2.952 sec  ( 27.4% of XC)
Diagonalization             ....       0.105 sec  (  0.1%)
Density matrix formation    ....       0.034 sec  (  0.0%)
Population analysis         ....       0.353 sec  (  0.2%)
Initial guess               ....       1.150 sec  (  0.7%)
Orbital Transformation      ....       0.000 sec  (  0.0%)
Orbital Orthonormalization  ....       1.130 sec  (  0.7%)
DIIS solution               ....       0.020 sec  (  0.0%)
SOSCF solution              ....       0.070 sec  (  0.0%)
Grid generation             ....      11.715 sec  (  7.3%)

------------------------------------------------------------------------------
                              ORCA MP2 CALCULATION
------------------------------------------------------------------------------


----------------------
RI-MP2 ENERGY+GRADIENT
----------------------
Dimension of the basis                    ...  468
Memory devoted to MP2                     ... 1000 MB   
Data format for buffers                   ... DOUBLE
Compression type for matrix containers    ... UNCOMPRESSED
Overall scaling of the MP2 energy         ...   2.700e-01 Eh
Calculating two index integrals           ... done (    0.036 sec)
Cholesky decomposition of the V-matrix    ... done
Cholesky decomposition of V**-1           ... done (    0.114 sec)

-----------------
RI-TRANSFORMATION (AUX index driven)
-----------------

Dimension of the orbital-basis         ... 468
Dimension of the aux-basis             ... 810
Transformation of internal MOs         ...    0-  80
Transformation of internal/external MOs...    0-  80 to   81- 467
Number Format for Storage              ... Double (8 Byte)
Integral mode                          ... Direct

First Phase: integral generation and transformation of MO indices
  Aux angular momentum 0               ... done (    1.911 sec)
  Aux angular momentum 1               ... done (    1.499 sec)
  Aux angular momentum 2               ... done (    1.828 sec)
  Aux angular momentum 3               ... done (    0.880 sec)
  Aux angular momentum 4               ... done (    0.851 sec)
Closing buffer VIJ ( 0.02 GB; CompressionRatio= 1.97)
Closing buffer VIA ( 0.19 GB; CompressionRatio= 1.00)
  Phase 1 completed in     7.141 sec
Second Phase: sorting and transformation of aux index

IJ-Transformation
Memory available                       ... 972 MB 
Max. # MO pairs treated in a batch     ... 81    
# of internal orbitals                 ... 81
# batches for internal orbitals        ... 1
Closing buffer IJV ( 0.02 GB; CompressionRatio= 1.00)
(ij|v) transformation done in     0.467 sec

IA-Transformation
Memory available                       ... 972 MB 
Max. # MO pairs treated in a batch     ... 81    
# of internal orbitals                 ... 81
# batches for internal orbitals        ... 1
Closing buffer IAV ( 0.19 GB; CompressionRatio= 1.00)
(ia|v) transformation done in     1.815 sec

  Phase 2 completed in     3.964 sec
RI-Integral transformation completed in    11.107 sec
Opening buffers                              ... done

Starting loop over batches of integrals:

Operator 0  - window                       ... (  0- 80)x( 81-467)
Operator 0  - Memory available             ...  1000 MB
Operator 0  - Memory needed per MO         ...   4.8 MB
Operator 0  - Number of orbitals per batch ... 81
Operator 0  - Number of batches            ... 1

OPERATOR  0   PASS   0:  MOs     0 ...   80
  Reading integrals       ... ok
  Internal MO   2
  Internal MO   5
  Internal MO   8
  Internal MO  11
  Internal MO  14
  Internal MO  17
  Internal MO  20
  Internal MO  23
  Internal MO  26
  Internal MO  29
  Internal MO  32
  Internal MO  35
  Internal MO  38
  Internal MO  41
  Internal MO  44
  Internal MO  47
  Internal MO  50
  Internal MO  53
  Internal MO  56
  Internal MO  59
  Internal MO  62
  Internal MO  65
  Internal MO  68
  Internal MO  71
  Internal MO  74
  Internal MO  77
  Internal MO  80
Closing buffer GIPV ( 0.23 GB; CompressionRatio= 1.00)
Time spent in pair loops =   546.738 sec

-----------------------------------------------
 RI-MP2 CORRELATION ENERGY:     -1.010955511 Eh
-----------------------------------------------


---------------------
MP2 DENSITY FORMATION
---------------------

Completing the external part of the density      ... done
Storing the unrelaxed density                    ... done

Calculating the xc-kernel                        ... done
Calculating G(D)                                 ... done
Completing the Lagrangian                        ... done
Solving the Z-vector equations                   ... 

------------------------------------------------------------------------------
                           ORCA CP-SCF CALCULATION
------------------------------------------------------------------------------

Input orbitals are from        ... PbCl6_MA2_mp2_sp_0.orca.gbw
Input Perturbation             ... PbCl6_MA2_mp2_sp_0.orca.pin.tmp
Wavefunction output            ... PbCl6_MA2_mp2_sp_0.orca.pout.tmp
Perturbation mode              ... Real perturbation
Solver                         ... POPLE
Max. number of iterations      ... 128
Convergence tolerance          ... 1.000e-08
Integral handling              ... Direct
COSX GridX                     ... 1
Number of perturbations        ... 1
Number of operators            ... 1
Orbital ranges used for CP-SCF:
 Operator 0:  Orbitals   0... 80  to  81...467
DFT calculation                         ... on
Exchange functional (SCF)               ... B88
Exchange functional (CP-SCF)            ... B88
   X-Alpha parameter    XAlpha (SCF)    ...  0.666667
   X-Alpha parameter    XAlpha (CP-SCF) ...  0.666667
   Becke's b parameter  XBeta (SCF)     ...  0.004200
   Becke's b parameter  XBeta (CP-SCF)  ...  0.004200
Correlation functional (SCF)            ... LYP
Correlation functional (CP-SCF)         ... LYP
[...]
      pz      :     0.008854  p :     0.022342
      px      :     0.008250
      py      :     0.005238
 22 H s       :     0.687063  s :     0.687063
      pz      :     0.017652  p :     0.041604
      px      :     0.016894
      py      :     0.007058


                     *******************************
                     * LOEWDIN POPULATION ANALYSIS *
                     *******************************

----------------------
LOEWDIN ATOMIC CHARGES
----------------------
   0 C :   -0.288847
   1 N :    0.079816
   2 H :    0.127504
   3 H :    0.127556
   4 H :    0.127709
   5 H :    0.162662
   6 H :    0.161922
   7 H :    0.161729
   8 Pb:   -0.525962
   9 Cl:   -0.131779
  10 Cl:   -0.133445
  11 Cl:   -0.131834
  12 Cl:   -0.131708
  13 Cl:   -0.131876
  14 Cl:   -0.133458
  15 N :    0.079747
  16 C :   -0.288810
  17 H :    0.162589
  18 H :    0.163110
  19 H :    0.127784
  20 H :    0.127690
  21 H :    0.127265
  22 H :    0.160636

-------------------------------
LOEWDIN REDUCED ORBITAL CHARGES
-------------------------------
  0 C s       :     2.854406  s :     2.854406
      pz      :     1.052904  p :     3.089058
      px      :     1.039312
      py      :     0.996842
      dz2     :     0.028016  d :     0.306929
      dxz     :     0.077915
      dyz     :     0.078801
      dx2y2   :     0.039303
      dxy     :     0.082894
      f0      :     0.004851  f :     0.038454
      f+1     :     0.004090
      f-1     :     0.006076
      f+2     :     0.003832
      f-2     :     0.007131
      f+3     :     0.005767
      f-3     :     0.006707
  1 N s       :     3.001013  s :     3.001013
      pz      :     1.250504  p :     3.741436
      px      :     1.248580
      py      :     1.242353
      dz2     :     0.016411  d :     0.166993
      dxz     :     0.043211
      dyz     :     0.041182
      dx2y2   :     0.024299
      dxy     :     0.041891
      f0      :     0.001430  f :     0.010742
      f+1     :     0.001307
      f-1     :     0.001647
      f+2     :     0.001131
      f-2     :     0.001893
      f+3     :     0.001504
      f-3     :     0.001829
  2 H s       :     0.808430  s :     0.808430
      pz      :     0.024316  p :     0.064066
      px      :     0.022912
      py      :     0.016837
  3 H s       :     0.808357  s :     0.808357
      pz      :     0.019549  p :     0.064087
      px      :     0.022071
      py      :     0.022467
  4 H s       :     0.808196  s :     0.808196
      pz      :     0.023933  p :     0.064094
      px      :     0.020639
      py      :     0.019522
  5 H s       :     0.714402  s :     0.714402
      pz      :     0.035795  p :     0.122935
      px      :     0.043049
      py      :     0.044091
  6 H s       :     0.714434  s :     0.714434
      pz      :     0.039374  p :     0.123643
      px      :     0.032443
      py      :     0.051827
  7 H s       :     0.714566  s :     0.714566
      pz      :     0.051152  p :     0.123705
      px      :     0.048899
      py      :     0.023654
  8 Pbs       :     3.134830  s :     3.134830
      pz      :     2.625089  p :     7.872158
      px      :     2.624732
      py      :     2.622337
      dz2     :     2.386488  d :    11.191292
      dxz     :     2.131731
      dyz     :     2.149039
      dx2y2   :     2.391624
      dxy     :     2.132410
      f0      :     0.074580  f :     0.327682
      f+1     :     0.047010
      f-1     :     0.049439
      f+2     :     0.032583
      f-2     :     0.007330
      f+3     :     0.058726
      f-3     :     0.058014
  9 Cls       :     5.764259  s :     5.764259
      pz      :     3.882435  p :    11.298363
      px      :     3.555996
      py      :     3.859933
      dz2     :     0.012672  d :     0.064985
      dxz     :     0.009712
      dyz     :     0.010700
      dx2y2   :     0.022083
      dxy     :     0.009817
      f0      :     0.000464  f :     0.004172
      f+1     :     0.000774
      f-1     :     0.000433
      f+2     :     0.000573
      f-2     :     0.000398
      f+3     :     0.000981
      f-3     :     0.000550
 10 Cls       :     5.764466  s :     5.764466
      pz      :     3.868115  p :    11.299940
      px      :     3.872533
      py      :     3.559292
      dz2     :     0.012483  d :     0.064876
      dxz     :     0.010855
      dyz     :     0.010963
      dx2y2   :     0.020480
      dxy     :     0.010094
      f0      :     0.000478  f :     0.004164
      f+1     :     0.000473
      f-1     :     0.000703
      f+2     :     0.000606
      f-2     :     0.000420
      f+3     :     0.000534
      f-3     :     0.000949
 11 Cls       :     5.764177  s :     5.764177
      pz      :     3.560633  p :    11.298605
      px      :     3.877132
      py      :     3.860840
      dz2     :     0.025401  d :     0.064884
      dxz     :     0.009793
      dyz     :     0.010274
      dx2y2   :     0.008718
      dxy     :     0.010699
      f0      :     0.001283  f :     0.004169
      f+1     :     0.000546
      f-1     :     0.000631
      f+2     :     0.000415
      f-2     :     0.000404
      f+3     :     0.000462
      f-3     :     0.000427
 12 Cls       :     5.764228  s :     5.764228
      pz      :     3.882411  p :    11.298411
      px      :     3.555047
      py      :     3.860954
      dz2     :     0.012682  d :     0.064897
      dxz     :     0.009716
      dyz     :     0.010621
      dx2y2   :     0.022057
      dxy     :     0.009821
      f0      :     0.000463  f :     0.004171
      f+1     :     0.000776
      f-1     :     0.000433
      f+2     :     0.000569
      f-2     :     0.000397
      f+3     :     0.000984
      f-3     :     0.000550
 13 Cls       :     5.764190  s :     5.764190
      pz      :     3.560216  p :    11.298690
      px      :     3.877416
      py      :     3.861059
      dz2     :     0.025387  d :     0.064828
      dxz     :     0.009795
      dyz     :     0.010290
      dx2y2   :     0.008713
      dxy     :     0.010643
      f0      :     0.001284  f :     0.004168
      f+1     :     0.000546
      f-1     :     0.000633
      f+2     :     0.000415
      f-2     :     0.000404
      f+3     :     0.000460
      f-3     :     0.000426
 14 Cls       :     5.764493  s :     5.764493
      pz      :     3.867727  p :    11.299769
      px      :     3.871258
      py      :     3.560783
      dz2     :     0.012476  d :     0.065029
      dxz     :     0.011022
      dyz     :     0.010956
      dx2y2   :     0.020474
      dxy     :     0.010102
      f0      :     0.000479  f :     0.004167
      f+1     :     0.000478
      f-1     :     0.000700
      f+2     :     0.000612
      f-2     :     0.000420
      f+3     :     0.000535
      f-3     :     0.000943
 15 N s       :     3.001041  s :     3.001041
      pz      :     1.251062  p :     3.741484
      px      :     1.249230
      py      :     1.241191
      dz2     :     0.016351  d :     0.166986
      dxz     :     0.043032
      dyz     :     0.040873
      dx2y2   :     0.024675
      dxy     :     0.042054
      f0      :     0.001396  f :     0.010742
      f+1     :     0.001285
      f-1     :     0.001689
      f+2     :     0.001135
      f-2     :     0.001874
      f+3     :     0.001486
      f-3     :     0.001878
 16 C s       :     2.854375  s :     2.854375
      pz      :     1.055434  p :     3.089070
      px      :     1.042859
      py      :     0.990777
      dz2     :     0.028250  d :     0.306910
      dxz     :     0.077237
      dyz     :     0.078030
      dx2y2   :     0.040389
      dxy     :     0.083003
      f0      :     0.004736  f :     0.038455
      f+1     :     0.003921
      f-1     :     0.006282
      f+2     :     0.003833
      f-2     :     0.007009
      f+3     :     0.005765
      f-3     :     0.006909
 17 H s       :     0.714430  s :     0.714430
      pz      :     0.038376  p :     0.122981
      px      :     0.033146
      py      :     0.051459
 18 H s       :     0.714375  s :     0.714375
      pz      :     0.036268  p :     0.122515
      px      :     0.042614
      py      :     0.043632
 19 H s       :     0.808116  s :     0.808116
      pz      :     0.024267  p :     0.064100
      px      :     0.020546
      py      :     0.019288
 20 H s       :     0.808217  s :     0.808217
      pz      :     0.019115  p :     0.064093
      px      :     0.022582
      py      :     0.022395
 21 H s       :     0.808674  s :     0.808674
      pz      :     0.024824  p :     0.064061
      px      :     0.023071
      py      :     0.016166
 22 H s       :     0.714554  s :     0.714554
      pz      :     0.052433  p :     0.124810
      px      :     0.049610
      py      :     0.022767


                      *****************************
                      * MAYER POPULATION ANALYSIS *
                      *****************************

  NA   - Mulliken gross atomic population
  ZA   - Total nuclear charge
  QA   - Mulliken gross atomic charge
  VA   - Mayer's total valence
  BVA  - Mayer's bonded valence
  FA   - Mayer's free valence

  ATOM       NA         ZA         QA         VA         BVA        FA
  0 C      6.2783     6.0000    -0.2783     3.8864     3.7719     0.1144
  1 N      7.2809     7.0000    -0.2809     3.3987     3.2563     0.1423
  2 H      0.8374     1.0000     0.1626     0.9628     0.9445     0.0183
  3 H      0.8370     1.0000     0.1630     0.9625     0.9442     0.0183
  4 H      0.8365     1.0000     0.1635     0.9624     0.9441     0.0183
  5 H      0.7254     1.0000     0.2746     0.9892     0.9687     0.0204
  6 H      0.7263     1.0000     0.2737     0.9908     0.9703     0.0205
  7 H      0.7281     1.0000     0.2719     0.9921     0.9715     0.0205
  8 Pb    20.9750    22.0000     1.0250     3.9036     3.5425     0.3612
  9 Cl    17.4200    17.0000    -0.4200     1.1682     0.8954     0.2728
 10 Cl    17.4218    17.0000    -0.4218     1.1660     0.8934     0.2726
 11 Cl    17.4207    17.0000    -0.4207     1.1665     0.8937     0.2728
 12 Cl    17.4204    17.0000    -0.4204     1.1670     0.8942     0.2728
 13 Cl    17.4209    17.0000    -0.4209     1.1658     0.8930     0.2728
 14 Cl    17.4212    17.0000    -0.4212     1.1681     0.8955     0.2726
 15 N      7.2809     7.0000    -0.2809     3.3990     3.2567     0.1423
 16 C      6.2783     6.0000    -0.2783     3.8866     3.7722     0.1144
 17 H      0.7259     1.0000     0.2741     0.9894     0.9690     0.0204
 18 H      0.7252     1.0000     0.2748     0.9884     0.9680     0.0204
 19 H      0.8364     1.0000     0.1636     0.9625     0.9442     0.0183
 20 H      0.8368     1.0000     0.1632     0.9626     0.9443     0.0183
 21 H      0.8377     1.0000     0.1623     0.9627     0.9444     0.0183
 22 H      0.7287     1.0000     0.2713     0.9943     0.9737     0.0206

  Mayer bond orders larger than 0.1
B(  0-C ,  1-N ) :   0.8929 B(  0-C ,  2-H ) :   0.9522 B(  0-C ,  3-H ) :   0.9518 
B(  0-C ,  4-H ) :   0.9516 B(  1-N ,  5-H ) :   0.8105 B(  1-N ,  6-H ) :   0.8084 
B(  1-N ,  7-H ) :   0.8093 B(  5-H , 11-Cl) :   0.1559 B(  6-H ,  9-Cl) :   0.1602 
B(  7-H , 10-Cl) :   0.1601 B(  8-Pb,  9-Cl) :   0.5887 B(  8-Pb, 10-Cl) :   0.5878 
B(  8-Pb, 11-Cl) :   0.5899 B(  8-Pb, 12-Cl) :   0.5902 B(  8-Pb, 13-Cl) :   0.5907 
B(  8-Pb, 14-Cl) :   0.5854 B( 12-Cl, 17-H ) :   0.1560 B( 13-Cl, 18-H ) :   0.1535 
B( 14-Cl, 22-H ) :   0.1669 B( 15-N , 16-C ) :   0.8933 B( 15-N , 17-H ) :   0.8105 
B( 15-N , 18-H ) :   0.8117 B( 15-N , 22-H ) :   0.8058 B( 16-C , 19-H ) :   0.9516 
B( 16-C , 20-H ) :   0.9517 B( 16-C , 21-H ) :   0.9522 


-------
TIMINGS
-------

Total time                : 1260.087 sec
Integral trafo            :   11.121 sec (  0.9%)
I/O of integrals          :    0.938 sec (  0.1%)
K(i,j) Operators          :   56.428 sec (  4.5%)
T(i,j) pair energies      :   10.682 sec (  0.8%)
V-calculation             :    0.036 sec (  0.0%)
V**(-1/2)                 :    0.114 sec (  0.0%)
Gamma(ia|P)               :   51.505 sec (  4.1%)
Gamma-Trafo               :    4.109 sec (  0.3%)
D(virtual)                :   24.040 sec (  1.9%)
D(internal)               :   78.206 sec (  6.2%)
W(virtual)                :   48.521 sec (  3.9%)
W(internal)               :  233.642 sec ( 18.5%)
L(virtual)                :   33.841 sec (  2.7%)
L(internal)               :    2.644 sec (  0.2%)
G(D)                      :   35.794 sec (  2.8%)
G(Z)                      :   36.390 sec (  2.9%)
Z-Vector Solution         :  331.288 sec ( 26.3%)
Z-Vector Solution         :  331.288 sec ( 26.3%)
3-Index Derivative 
+ Separable RIJ part      :   16.264 sec (  1.3%)
2-Index Derivative 
+ Separable RIJ part      :    0.067 sec (  0.0%)
Separable Gradient (COSX) :  278.129 sec ( 22.1%)


---------------------------------------
MP2 TOTAL ENERGY:    -3146.415542957 Eh
---------------------------------------

The final MP2 gradient
  0:   0.00029249   0.00045315   0.00024714
  1:   0.00215332   0.00303823   0.00189102
  2:   0.00290533  -0.00196276   0.00306380
  3:  -0.00269996   0.00292069   0.00236782
  4:   0.00256988   0.00247943  -0.00289256
  5:  -0.00336754  -0.00345951   0.00270243
  6:   0.00244024  -0.00400557  -0.00313779
  7:  -0.00382614   0.00131979  -0.00380256
  8:  -0.00003940  -0.00000061   0.00002046
  9:   0.00975013   0.00031706  -0.00037891
 10:  -0.00076792   0.00959954  -0.00176598
 11:  -0.00037162   0.00060019   0.00991888
 12:  -0.00977233  -0.00033413   0.00042113
 13:   0.00040520  -0.00064286  -0.00992432
 14:   0.00080523  -0.00958740   0.00171732
 15:  -0.00205694  -0.00324039  -0.00179894
 16:  -0.00030021  -0.00044782  -0.00028033
 17:  -0.00250284   0.00410364   0.00289280
 18:   0.00324293   0.00353959  -0.00279392
 19:  -0.00252846  -0.00245315   0.00291271
 20:   0.00275208  -0.00292443  -0.00226243
 21:  -0.00291272   0.00182520  -0.00309687
 22:   0.00381996  -0.00119442   0.00397909

-----------------------------------
NORM OF THE MP2 GRADIENT:  0.030525
-----------------------------------

Entering the calculation of the dispersion correction...

Checking the input atom types...

Done


-------------------------------------------------------------------------------
                          DFT DISPERSION CORRECTION                            
                                                                               
                                DFTD3 V2.1  Rev 6                               
                          USING Becke-Johnson damping                          
-------------------------------------------------------------------------------
The B2PLYP functional is recognized
Active option DFTDOPT                   ...         4   

molecular C6(AA) [au] = 13361.581420 


            DFT-D V3
 parameters
 s6 scaling factor         :     0.6400 
 a1 scaling factor         :     0.3065 
 s8 scaling factor         :     0.9147 
 a2 scaling factor         :     5.0570 
 ad hoc parameters k1-k3   :    16.0000     1.3333    -4.0000 

 Edisp/kcal,au: -19.125258881637  -0.030478036798 
 E6   /kcal   :  -8.912751938 
 E8   /kcal   : -10.212506944 
 % E8         :  53.398006305 

-------------------------   ----------------
Dispersion correction           -0.030478037
-------------------------   ----------------


-------------------------   --------------------
FINAL SINGLE POINT ENERGY     -3146.446020994209
-------------------------   --------------------


                            ***************************************
                            *     ORCA property calculations      *
                            ***************************************


  WARNING: The energy has been calculated at the MP2 level but the densities
           used in the property calculations are still SCF densities
           MP2 response densities have not been calculated 
           use %mp2 Density relaxed end
           or  %mp2 Density unrelaxed end

                                    ---------------------
                                    Active property flags
                                    ---------------------
   (+) Dipole Moment


------------------------------------------------------------------------------
                       ORCA ELECTRIC PROPERTIES CALCULATION
------------------------------------------------------------------------------

Dipole Moment Calculation                       ... on
Quadrupole Moment Calculation                   ... off
Polarizability Calculation                      ... off
GBWName                                         ... PbCl6_MA2_mp2_sp_0.orca.gbw
Electron density file                           ... PbCl6_MA2_mp2_sp_0.orca.scfp.tmp

-------------
DIPOLE MOMENT
-------------
                                X             Y             Z
Electronic contribution:     -0.29250       0.37372      -0.22462
Nuclear contribution   :      0.29674      -0.38169       0.23136
                        -----------------------------------------
Total Dipole Moment    :      0.00424      -0.00797       0.00674
                        -----------------------------------------
Magnitude (a.u.)       :      0.01127
Magnitude (Debye)      :      0.02863


                         *** MP2 UNRELAXED DENSITY ***

------------------------------------------------------------------------------
                       ORCA ELECTRIC PROPERTIES CALCULATION
------------------------------------------------------------------------------

Dipole Moment Calculation                       ... on
Quadrupole Moment Calculation                   ... off
Polarizability Calculation                      ... off
GBWName                                         ... PbCl6_MA2_mp2_sp_0.orca.gbw
Electron density file                           ... PbCl6_MA2_mp2_sp_0.orca.pmp2ur

-------------
DIPOLE MOMENT
-------------
                                X             Y             Z
Electronic contribution:     -0.29244       0.37367      -0.22461
Nuclear contribution   :      0.29674      -0.38169       0.23136
                        -----------------------------------------
Total Dipole Moment    :      0.00430      -0.00803       0.00675
                        -----------------------------------------
Magnitude (a.u.)       :      0.01133
Magnitude (Debye)      :      0.02881


                           *** MP2 RELAXED DENSITY ***

------------------------------------------------------------------------------
                       ORCA ELECTRIC PROPERTIES CALCULATION
------------------------------------------------------------------------------

Dipole Moment Calculation                       ... on
Quadrupole Moment Calculation                   ... off
Polarizability Calculation                      ... off
GBWName                                         ... PbCl6_MA2_mp2_sp_0.orca.gbw
Electron density file                           ... PbCl6_MA2_mp2_sp_0.orca.pmp2re

-------------
DIPOLE MOMENT
-------------
                                X             Y             Z
Electronic contribution:     -0.29227       0.37354      -0.22461
Nuclear contribution   :      0.29674      -0.38169       0.23136
                        -----------------------------------------
Total Dipole Moment    :      0.00448      -0.00816       0.00675
                        -----------------------------------------
Magnitude (a.u.)       :      0.01149
Magnitude (Debye)      :      0.02922


Timings for individual modules:

Sum of individual times         ...     1423.285 sec (=  23.721 min)
GTO integral calculation        ...        1.830 sec (=   0.031 min)   0.1 %
SCF iterations                  ...      161.021 sec (=   2.684 min)  11.3 %
MP2 module                      ...     1260.435 sec (=  21.007 min)  88.6 %
                             ****ORCA TERMINATED NORMALLY****
TOTAL RUN TIME: 0 days 0 hours 23 minutes 44 seconds 8 msec
