
                                 *****************
                                 * O   R   C   A *
                                 *****************

           --- An Ab Initio, DFT and Semiempirical electronic structure package ---

                  #######################################################
                  #                        -***-                        #
                  #  Department of molecular theory and spectroscopy    #
                  #              Directorship: Frank Neese              #
                  # Max Planck Institute for Chemical Energy Conversion #
                  #                  D-45470 Muelheim/Ruhr              #
                  #                       Germany                       #
                  #                                                     #
                  #                  All rights reserved                #
                  #                        -***-                        #
                  #######################################################


                         Program Version 3.0.3 - RELEASE   -


 With contributions from (in alphabetic order):
   Ute Becker             : Parallelization
   Dmytro Bykov           : SCF Hessian
   Dmitry Ganyushin       : Spin-Orbit,Spin-Spin,Magnetic field MRCI
   Andreas Hansen         : Spin unrestricted coupled pair/coupled cluster methods
   Dimitrios Liakos       : Extrapolation schemes; parallel MDCI
   Robert Izsak           : Overlap fitted RIJCOSX, COSX-SCS-MP3
   Christian Kollmar      : KDIIS, OOCD, Brueckner-CCSD(T), CCSD density
   Simone Kossmann        : Meta GGA functionals, TD-DFT gradient, OOMP2, MP2 Hessian
   Taras Petrenko         : DFT Hessian,TD-DFT gradient, ASA and ECA modules, normal mode analysis, Resonance Raman, ABS, FL, XAS/XES, NRVS
   Christoph Reimann      : Effective Core Potentials
   Michael Roemelt        : Restricted open shell CIS
   Christoph Riplinger    : Improved optimizer, TS searches, QM/MM, DLPNO-CCSD
   Barbara Sandhoefer     : DKH picture change effects
   Igor Schapiro          : Molecular dynamics
   Kantharuban Sivalingam : CASSCF convergence, NEVPT2
   Boris Wezisla          : Elementary symmetry handling
   Frank Wennmohs         : Technical directorship


 We gratefully acknowledge several colleagues who have allowed us to
 interface, adapt or use parts of their codes:
   Stefan Grimme, W. Hujo, H. Kruse, T. Risthaus : VdW corrections, initial TS optimization,
                                                   DFT functionals, gCP
   Ed Valeev                                     : LibInt (2-el integral package), F12 methods
   Garnet Chan, S. Sharma, R. Olivares           : DMRG
   Ulf Ekstrom                                   : XCFun DFT Library
   Mihaly Kallay                                 : mrcc  (arbitrary order and MRCC methods)
   Andreas Klamt, Michael Diedenhofen            : otool_cosmo (COSMO solvation model)
   Frank Weinhold                                : gennbo (NPA and NBO analysis)
   Christopher J. Cramer and Donald G. Truhlar   : smd solvation model


 Your calculation uses the libint2 library for the computation of 2-el integrals
 For citations please refer to: http://libint.valeyev.net

 This ORCA versions uses:
   CBLAS   interface :  Fast vector & matrix operations
   LAPACKE interface :  Fast linear algebra routines
   SCALAPACK package :  Parallel linear algebra routines


Your calculation utilizes the basis: Ahlrichs-TZV
Cite in your paper:
H - Kr: A. Schaefer, H. Horn and R. Ahlrichs, J. Chem. Phys. 97, 2571 (1992).

The def2-TZV basis will be loaded
Cite in your paper:
 	F. Weigend, R. Ahlrichs, Phys. Chem. Chem. Phys. 2005, 7, 3297.

Your calculation utilizes the atom-pairwise dispersion correction
with the Becke-Johnson damping scheme (D3BJ)
Cite in your paper:
S.Grimme, S.Ehrlich, L.Goerigk, J Comput Chem, (2011), 32, 1456–1465 
S.Grimme, J.Antony, S.Ehrlich and H.Krieg, J.Chem.Phys., 132, (2010), 154104 
   

================================================================================
                                        WARNINGS
                       Please study these warnings very carefully!
================================================================================

WARNING: The RI method has been chosen with no auxiliary basis (AUX or GTOAUX in BASIS block)
        Standard TZV/J expansion basis used (GTOAUX=TZV_J)

Now building the actual basis set
cite the ECPs for Pb [SD(60,MDF)] as follows:
  B. Metz, H. Stoll, M. Dolg, J. Chem. Phys. 113, 2563 (2000).

ECP parameters for Pb [SD(60,MDF)] have been obtained from:
  pseudopotential library of the Stuttgart/Cologne group
  http://www.theochem.uni-stuttgart.de/pseudopotentials/

cite the ECP basis sets for Pb [DEF2-TZVP] as follows:
  F. Weigend, R. Ahlrichs; Phys. Chem. Chem. Phys. 7, 3297(2005).

ECP basis sets for Pb [DEF2-TZVP] have been obtained from:
  Turbomole basis set library
  ftp://ftp.chemie.uni-karlsruhe.de/pub/basen/



INFO   : the flag for use of LIBINT has been found!

================================================================================
                                       INPUT FILE
================================================================================
NAME = PbMACl3_mp2_md_8.orca
|  1> ! RIJCOSX RI-B2PLYP D3BJ def2-TZVP ECP{def2-TZVP} TIGHTSCF Grid5 FinalGrid6 SlowConv MORead
|  2> %method
|  3>  RunTyp Gradient
|  4>  end
|  5> %maxcore 1000
|  6> %moinp "previous.gbw"
|  7> *xyz 0 1
|  8> C -0.955246 0.098183 -0.840852 
|  9> N -0.550557 -0.648203 -2.082840 
| 10> H -1.055120 -1.641790 -2.117870 
| 11> H 0.419408 -0.877591 -1.994240 
| 12> H -0.675193 -0.135699 -2.832870 
| 13> H -0.919121 -0.613030 -0.053443 
| 14> H -2.048570 0.317965 -0.620484 
| 15> H -0.287834 0.997611 -0.698107 
| 16> Pb -3.100580 -2.562310 -2.347110 
| 17> Cl -0.710464 -3.281860 -2.337270 
| 18> Cl -3.292330 -0.074344 -2.371420 
| 19> Cl -4.515310 -3.774560 -0.899481 
| 20> *
| 21> 
| 22>                          ****END OF INPUT****
================================================================================

                     *******************************
                     * Energy+Gradient Calculation *
                     *******************************

---------------------------------
CARTESIAN COORDINATES (ANGSTROEM)
---------------------------------
  C     -0.955246    0.098183   -0.840852
  N     -0.550557   -0.648203   -2.082840
  H     -1.055120   -1.641790   -2.117870
  H      0.419408   -0.877591   -1.994240
  H     -0.675193   -0.135699   -2.832870
  H     -0.919121   -0.613030   -0.053443
  H     -2.048570    0.317965   -0.620484
  H     -0.287834    0.997611   -0.698107
  Pb    -3.100580   -2.562310   -2.347110
  Cl    -0.710464   -3.281860   -2.337270
  Cl    -3.292330   -0.074344   -2.371420
  Cl    -4.515310   -3.774560   -0.899481

----------------------------
CARTESIAN COORDINATES (A.U.)
----------------------------
  NO LB      ZA    FRAG    MASS        X           Y           Z
   0 C     6.0000    0    12.011         -1.805153330523740          0.185538981006790         -1.588979999159952
   1 N     7.0000    0    14.007         -1.040401951113282         -1.224926149186157         -3.935997180776540
   2 H     1.0000    0     1.008         -1.993887838422991         -3.102533469410572         -4.002194287247801
   3 H     1.0000    0     1.008          0.792566258375644         -1.658406647594085         -3.768567445311117
   4 H     1.0000    0     1.008         -1.275929857540692         -0.256433946646980         -5.353348473001496
   5 H     1.0000    0     1.008         -1.736886973935835         -1.158458811877745         -0.100992633775153
   6 H     1.0000    0     1.008         -3.871236266167058          0.600866770172271         -1.172544830479994
   7 H     1.0000    0     1.008         -0.543927432031090          1.885211578187314         -1.319231042173363
   8 Pb   22.0000*   0   207.200  -5.859247056313555  -4.842064170207762  -4.435395106187909
   9 Cl   17.0000    0    35.453         -1.342582388010228         -6.201816609870799         -4.416800201030124
  10 Cl   17.0000    0    35.453         -6.221602042492955         -0.140489799700242         -4.481334348503535
  11 Cl   17.0000    0    35.453         -8.532699309755968         -7.132884676053800         -1.699772752665621
* core charge reduced due to ECP

--------------------------------
INTERNAL COORDINATES (ANGSTROEM)
--------------------------------
 C      0   0   0   0.000000     0.000     0.000
 N      1   0   0   1.504460     0.000     0.000
 H      2   1   0   1.114911   110.263     0.000
 H      2   1   3   1.000650   107.540   247.553
 H      2   1   3   0.916918   111.187   127.797
 H      1   2   3   1.061669   105.710    43.774
 H      1   2   3   1.136760   120.975   302.750
 H      1   2   3   1.129064   109.912   168.224
 Pb     3   2   1   2.254732   141.040    67.382
 Cl     3   2   1   1.690193   140.946   230.687
 Cl     7   1   2   2.183260   110.959   347.630
 Cl     9   3   2   2.359373   133.737   247.700

---------------------------
INTERNAL COORDINATES (A.U.)
---------------------------
 C      0   0   0   0.000000     0.000     0.000
 N      1   0   0   2.843017     0.000     0.000
 H      2   1   0   2.106876   110.263     0.000
 H      2   1   3   1.890955   107.540   247.553
 H      2   1   3   1.732725   111.187   127.797
 H      1   2   3   2.006264   105.710    43.774
 H      1   2   3   2.148165   120.975   302.750
 H      1   2   3   2.133622   109.912   168.224
 Pb     3   2   1   4.260825   141.040    67.382
 Cl     3   2   1   3.194003   140.946   230.687
 Cl     7   1   2   4.125763   110.959   347.630
 Cl     9   3   2   4.458569   133.737   247.700

---------------------
BASIS SET INFORMATION
---------------------
There are 5 groups of distinct atoms

 Group   1 Type C   : 11s6p2d1f contracted to 5s3p2d1f pattern {62111/411/11/1}
 Group   2 Type N   : 11s6p2d1f contracted to 5s3p2d1f pattern {62111/411/11/1}
 Group   3 Type H   : 5s1p contracted to 3s1p pattern {311/1}
 Group   4 Type Pb  : 10s9p8d2f contracted to 6s5p3d2f pattern {421111/33111/611/11}
 Group   5 Type Cl  : 14s9p3d1f contracted to 5s5p2d1f pattern {73211/51111/21/1}

Atom   0C    basis set group =>   1
Atom   1N    basis set group =>   2
Atom   2H    basis set group =>   3
Atom   3H    basis set group =>   3
Atom   4H    basis set group =>   3
Atom   5H    basis set group =>   3
Atom   6H    basis set group =>   3
Atom   7H    basis set group =>   3
Atom   8Pb   basis set group =>   4
Atom   9Cl   basis set group =>   5
Atom  10Cl   basis set group =>   5
Atom  11Cl   basis set group =>   5
-------------------------------
AUXILIARY BASIS SET INFORMATION
-------------------------------
There are 5 groups of distinct atoms

 Group   1 Type C   : 12s5p4d2f1g contracted to 6s4p3d1f1g pattern {711111/2111/211/2/1}
 Group   2 Type N   : 12s5p4d2f1g contracted to 6s4p3d1f1g pattern {711111/2111/211/2/1}
 Group   3 Type H   : 5s2p1d contracted to 3s1p1d pattern {311/2/1}
 Group   4 Type Pb  : 31s12p8d6f3g contracted to 31s12p8d6f3g pattern {1111111111111111111111111111111/111111111111/11111111/111111/111}
 Group   5 Type Cl  : 14s5p5d2f1g contracted to 8s4p3d1f1g pattern {71111111/2111/311/2/1}

Atom   0C    basis set group =>   1
Atom   1N    basis set group =>   2
Atom   2H    basis set group =>   3
Atom   3H    basis set group =>   3
Atom   4H    basis set group =>   3
Atom   5H    basis set group =>   3
Atom   6H    basis set group =>   3
Atom   7H    basis set group =>   3
Atom   8Pb   basis set group =>   4
Atom   9Cl   basis set group =>   5
Atom  10Cl   basis set group =>   5
Atom  11Cl   basis set group =>   5

-------------------------
ECP PARAMETER INFORMATION
-------------------------

 Group 1, Type Pb ECP SD(60,MDF) (replacing 60 core electrons, lmax=5)

Atom   8Pb   ECP group =>   1


------------------------------------------------------------------------------
                           ORCA GTO INTEGRAL CALCULATION
                           -- RI-GTO INTEGRALS CHOSEN --
------------------------------------------------------------------------------

                         BASIS SET STATISTICS AND STARTUP INFO

Gaussian basis set:
 # of primitive gaussian shells          ...  186
 # of primitive gaussian functions       ...  420
 # of contracted shells                  ...  101
 # of contracted basis functions         ...  259
 Highest angular momentum                ...    3
 Maximum contraction depth               ...    7
Auxiliary gaussian basis set:
 # of primitive gaussian shells          ...  237
 # of primitive gaussian functions       ...  643
 # of contracted shells                  ...  171
 # of contracted aux-basis functions     ...  493
 Highest angular momentum                ...    4
 Maximum contraction depth               ...    7
Ratio of auxiliary to basis functions    ...  1.90
Integral package used                  ... LIBINT
 One Electron integrals                  
   ECP integrals                         ... done
 Ordering auxiliary basis shells         ... done
 Integral threshhold             Thresh  ...  2.500e-11
 Primitive cut-off               TCut    ...  2.500e-12
 Pre-screening matrix                    ... done
 Shell pair data                         ... 
 Ordering of the shell pairs             ... done (   0.001 sec) 4443 of 5151 pairs
 Determination of significant pairs      ... done (   0.000 sec)
 Creation of shell pair data             ... done (   0.001 sec)
 Storage of shell pair data              ... done (   0.001 sec)
 Shell pair data done in (   0.003 sec)
 Computing two index integrals           ... done
 Cholesky decomposition of the V-matrix  ... done


Timings:
 Total evaluation time                   ...   0.676 sec (  0.011 min)
 One electron matrix time                ...   0.364 sec (  0.006 min) = 54.0%
 Schwartz matrix evaluation time         ...   0.236 sec (  0.004 min) = 35.0%
 Two index repulsion integral time       ...   0.008 sec (  0.000 min) =  1.2%
 Cholesky decomposition of V             ...   0.037 sec (  0.001 min) =  5.5%
 Three index repulsion integral time     ...   0.000 sec (  0.000 min) =  0.0%

-------------------------------------------------------------------------------
                                 ORCA SCF
-------------------------------------------------------------------------------

------------
SCF SETTINGS
------------
Hamiltonian:
 Density Functional     Method          .... DFT(GTOs)
 Exchange Functional    Exchange        .... B88
   X-Alpha parameter    XAlpha          ....  0.666667
   Becke's b parameter  XBeta           ....  0.004200
 Correlation Functional Correlation     .... LYP
 LDA part of GGA corr.  LDAOpt          .... VWN-3
 Gradients option       PostSCFGGA      .... off
 Hybrid DFT is turned on
   Fraction HF Exchange ScalHFX         ....  0.530000
   Scaling of DF-GGA-X  ScalDFX         ....  0.470000
   Scaling of DF-GGA-C  ScalDFC         ....  0.730000
   Scaling of DF-LDA-C  ScalLDAC        ....  0.730000
   Perturbative correction              ....  0.270000
 RI-approximation to the Coulomb term is turned on
   Number of auxiliary basis functions  .... 493
   RIJ-COSX (HFX calculated with COS-X)).... on


General Settings:
 Integral files         IntName         .... PbMACl3_mp2_md_8.orca
 Hartree-Fock type      HFTyp           .... RHF
 Total Charge           Charge          ....    0
 Multiplicity           Mult            ....    1
 Number of Electrons    NEL             ....   92
 Basis Dimension        Dim             ....  259
 Nuclear Repulsion      ENuc            ....    615.2508302286 Eh

Convergence Acceleration:
 DIIS                   CNVDIIS         .... on
   Start iteration      DIISMaxIt       ....     0
   Startup error        DIISStart       ....  0.200000
   # of expansion vecs  DIISMaxEq       ....     5
   Bias factor          DIISBfac        ....   1.050
   Max. coefficient     DIISMaxC        ....  10.000
 Newton-Raphson         CNVNR           .... off
 SOSCF                  CNVSOSCF        .... on
   Start iteration      SOSCFMaxIt      ....   150
   Startup grad/error   SOSCFStart      ....  0.001000
 Level Shifting         CNVShift        .... on
   Level shift para.    LevelShift      ....    0.2500
   Turn off err/grad.   ShiftErr        ....    0.0000
 Zerner damping         CNVZerner       .... off
 Static damping         CNVDamp         .... on
   Fraction old density DampFac         ....    0.8500
   Max. Damping (<1)    DampMax         ....    0.9800
   Min. Damping (>=0)   DampMin         ....    0.0000
   Turn off err/grad.   DampErr         ....    0.0300
 Fernandez-Rico         CNVRico         .... off

SCF Procedure:
 Maximum # iterations   MaxIter         ....   125
 SCF integral mode      SCFMode         .... Direct
   Integral package                     .... LIBINT
 Reset frequeny         DirectResetFreq ....    20
 Integral Threshold     Thresh          ....  2.500e-11 Eh
 Primitive CutOff       TCut            ....  2.500e-12 Eh

Convergence Tolerance:
 Convergence Check Mode ConvCheckMode   .... Total+1el-Energy
 Energy Change          TolE            ....  1.000e-08 Eh
 1-El. energy change                    ....  1.000e-05 Eh
 Orbital Gradient       TolG            ....  1.000e-05
 Orbital Rotation angle TolX            ....  1.000e-05
 DIIS Error             TolErr          ....  5.000e-07


Diagonalization of the overlap matrix:
Smallest eigenvalue                        ... 8.076e-04
Time for diagonalization                   ...    0.272 sec
Threshold for overlap eigenvalues          ... 1.000e-08
Number of eigenvalues below threshold      ... 0
Time for construction of square roots      ...    0.008 sec
Total time needed                          ...    0.280 sec

---------------------
INITIAL GUESS: MOREAD
---------------------
Guess MOs are being read from file: previous.gbw
Input geometry compatible with but different from current geometry
Input basis set matches current basis set (good)
MOs were renormalized
MOs were reorthogonalized (Schmidt)
                      ------------------
                      INITIAL GUESS DONE (   0.1 sec)
                      ------------------
-------------------
DFT GRID GENERATION
-------------------

General Integration Accuracy     IntAcc      ...  5.010
Radial Grid Type                 RadialGrid  ... Gauss-Chebyshev
Angular Grid (max. acc.)         AngularGrid ... Lebedev-434
Angular grid pruning method      GridPruning ... 3 (G Style)
Weight generation scheme         WeightScheme... Becke
Basis function cutoff            BFCut       ...    1.0000e-11
Integration weight cutoff        WCut        ...    1.0000e-14
Grids for H and He will be reduced by one unit

# of grid points (after initial pruning)     ... 115882 (   0.0 sec)
# of grid points (after weights+screening)   ... 108196 (   0.3 sec)
nearest neighbour list constructed           ...    0.0 sec
Grid point re-assignment to atoms done       ...    0.0 sec
Grid point division into batches done        ...    1.0 sec
Reduced shell lists constructed in    2.6 sec

Total number of grid points                  ...   108196
Total number of batches                      ...     1696
Average number of points per batch           ...       63
Average number of grid points per atom       ...     9016
Average number of shells per batch           ...    55.87 (55.32%)
Average number of basis functions per batch  ...   148.11 (57.18%)
Average number of large shells per batch     ...    42.87 (76.74%)
Average number of large basis fcns per batch ...   111.86 (75.53%)
Maximum spatial batch extension              ...  33.97, 33.97, 33.73 au
Average spatial batch extension              ...   2.35,  2.34,  2.50 au

Time for grid setup =    2.898 sec

--------------------
COSX GRID GENERATION
--------------------

General Integration Accuracy     IntAcc      ...  3.340
Radial Grid Type                 RadialGrid  ... Gauss-Chebyshev
Angular Grid (max. acc.)         AngularGrid ... Lebedev-50
Angular grid pruning method      GridPruning ... 3 (G Style)
Weight generation scheme         WeightScheme... Becke
Basis function cutoff            BFCut       ...    1.0000e-11
Integration weight cutoff        WCut        ...    1.0000e-14
Grids for H and He will be reduced by one unit

# of grid points (after initial pruning)     ...   6578 (   0.0 sec)
# of grid points (after weights+screening)   ...   6234 (   0.0 sec)
nearest neighbour list constructed           ...    0.0 sec
Grid point re-assignment to atoms done       ...    0.0 sec
Grid point division into batches done        ...    0.0 sec
Reduced shell lists constructed in    0.1 sec

Total number of grid points                  ...     6234
Total number of batches                      ...      104
Average number of points per batch           ...       59
Average number of grid points per atom       ...      520
Average number of shells per batch           ...    67.63 (66.96%)
Average number of basis functions per batch  ...   182.09 (70.30%)
Average number of large shells per batch     ...    53.21 (78.68%)
Average number of large basis fcns per batch ...   140.89 (77.37%)
Maximum spatial batch extension              ...  25.26, 27.07, 36.32 au
Average spatial batch extension              ...   6.12,  5.84,  7.05 au

Overlap Fitting                  UseSFitting ... on
Constructing numerical overlap ... done (      0.1 sec)
Inverting numerical overlap    ... done (      0.0 sec)
Obtaining analytic overlap     ... done (      0.0 sec)
Final contraction and storage  ... done (      0.0 sec)


General Integration Accuracy     IntAcc      ...  3.670
Radial Grid Type                 RadialGrid  ... Gauss-Chebyshev
Angular Grid (max. acc.)         AngularGrid ... Lebedev-50
Angular grid pruning method      GridPruning ... 3 (G Style)
Weight generation scheme         WeightScheme... Becke
Basis function cutoff            BFCut       ...    1.0000e-11
Integration weight cutoff        WCut        ...    1.0000e-14
Grids for H and He will be reduced by one unit

# of grid points (after initial pruning)     ...   8124 (   0.0 sec)
# of grid points (after weights+screening)   ...   7679 (   0.0 sec)
nearest neighbour list constructed           ...    0.0 sec
Grid point re-assignment to atoms done       ...    0.0 sec
Grid point division into batches done        ...    0.0 sec
Reduced shell lists constructed in    0.1 sec

Total number of grid points                  ...     7679
Total number of batches                      ...      126
Average number of points per batch           ...       60
Average number of grid points per atom       ...      640
Average number of shells per batch           ...    66.58 (65.92%)
Average number of basis functions per batch  ...   178.76 (69.02%)
Average number of large shells per batch     ...    52.50 (78.86%)
Average number of large basis fcns per batch ...   138.33 (77.39%)
Maximum spatial batch extension              ...  26.20, 27.95, 35.40 au
Average spatial batch extension              ...   5.52,  5.26,  6.30 au

Overlap Fitting                  UseSFitting ... on
Constructing numerical overlap ... done (      0.1 sec)
Inverting numerical overlap    ... done (      0.0 sec)
Obtaining analytic overlap     ... done (      0.0 sec)
Final contraction and storage  ... done (      0.0 sec)


General Integration Accuracy     IntAcc      ...  4.010
Radial Grid Type                 RadialGrid  ... Gauss-Chebyshev
Angular Grid (max. acc.)         AngularGrid ... Lebedev-110
Angular grid pruning method      GridPruning ... 3 (G Style)
Weight generation scheme         WeightScheme... Becke
Basis function cutoff            BFCut       ...    1.0000e-11
Integration weight cutoff        WCut        ...    1.0000e-14
Grids for H and He will be reduced by one unit

# of grid points (after initial pruning)     ...  15170 (   0.0 sec)
# of grid points (after weights+screening)   ...  14397 (   0.0 sec)
nearest neighbour list constructed           ...    0.0 sec
Grid point re-assignment to atoms done       ...    0.0 sec
Grid point division into batches done        ...    0.0 sec
Reduced shell lists constructed in    0.2 sec

Total number of grid points                  ...    14397
Total number of batches                      ...      230
Average number of points per batch           ...       62
Average number of grid points per atom       ...     1200
Average number of shells per batch           ...    63.10 (62.48%)
Average number of basis functions per batch  ...   169.16 (65.31%)
Average number of large shells per batch     ...    49.19 (77.95%)
Average number of large basis fcns per batch ...   129.77 (76.71%)
Maximum spatial batch extension              ...  30.39, 30.75, 30.77 au
Average spatial batch extension              ...   4.74,  4.67,  5.53 au

Overlap Fitting                  UseSFitting ... on
Constructing numerical overlap ... done (      0.2 sec)
Inverting numerical overlap    ... done (      0.0 sec)
Obtaining analytic overlap     ... done (      0.0 sec)
Final contraction and storage  ... done (      0.0 sec)

Time for X-Grid setup             =    1.046 sec
--------------
SCF ITERATIONS
--------------
ITER       Energy         Delta-E        Max-DP      RMS-DP      [F,P]     Damp
               ***  Starting incremental Fock matrix formation  ***
  0  -1663.8782514326   0.000000000000 0.08143190  0.00208913  0.6714778 0.8500
  1  -1664.5858433452  -0.707591912595 0.08139444  0.00189487  0.5712710 0.8500
                               ***Turning on DIIS***
  2  -1665.1902339173  -0.604390572178 0.06856573  0.00162838  0.4857624 0.8500
  3  -1665.7051095188  -0.514875601483 0.05593906  0.00138462  0.4130380 0.8500
  4  -1666.1499827311  -0.444873212312 0.04676281  0.00119739  0.3511612 0.8500
  5  -1666.5331534962  -0.383170765101 0.03972687  0.00103918  0.2985214 0.8500
  6  -1666.8655978212  -0.332444324954 0.03430298  0.00089708  0.2537568 0.8500
  7  -1667.1546738739  -0.289076052694 0.02973391  0.00077042  0.2156990 0.8500
  8  -1667.4057104114  -0.251036537544 0.02574536  0.00065931  0.1833487 0.8500
  9  -1667.6223313030  -0.216620891552 0.02197537  0.00056281  0.1558504 0.8500
 10  -1667.8086261914  -0.186294888388 0.01860900  0.00047993  0.1324764 0.8500
 11  -1667.9686054774  -0.159979285999 0.01577302  0.00040912  0.1126082 0.8500
 12  -1668.1058391509  -0.137233673510 0.01341601  0.00034871  0.0957198 0.8500
 13  -1668.2234226061  -0.117583455239 0.01143258  0.00029716  0.0813641 0.8500
 14  -1668.3240398641  -0.100617257991 0.00973389  0.00025314  0.0691611 0.8500
 15  -1668.4100433499  -0.086003485824 0.00827569  0.00021560  0.0587882 0.8500
 16  -1668.4834925148  -0.073449164839 0.00703359  0.00018362  0.0499711 0.8500
 17  -1668.5461772018  -0.062684687061 0.00598137  0.00015638  0.0424763 0.8500
 18  -1668.5996439880  -0.053466786137 0.00508966  0.00013318  0.0361056 0.8500
 19  -1668.6452250829  -0.045581094909 0.00433139  0.00011342  0.0306904 0.8500
               *** Restarting incremental Fock matrix formation ***
                                   *** Resetting DIIS ***
 20  -1668.6867574583  -0.041532375477 0.02310568  0.00061899  0.0260869 0.0000
 21  -1668.9083561317  -0.221598673373 0.00448519  0.00008031  0.0087280 0.0000
 22  -1668.9085351386  -0.000179006903 0.00184987  0.00002749  0.0046871 0.0000
                      *** Initiating the SOSCF procedure ***
                           *** Shutting down DIIS ***
                      *** Re-Reading the Fockian *** 
                      *** Removing any level shift *** 
ITER      Energy       Delta-E        Grad      Rot      Max-DP    RMS-DP
 23  -1668.90857908  -0.0000439404  0.000181  0.000181  0.000445  0.000011
               *** Restarting incremental Fock matrix formation ***
 24  -1668.90591179   0.0026672842  0.000344  0.000564  0.001651  0.000025
 25  -1668.90591035   0.0000014421  0.000043  0.000163  0.000371  0.000006
 26  -1668.90590960   0.0000007550  0.000052  0.000061  0.000201  0.000003
 27  -1668.90591016  -0.0000005628  0.000009  0.000036  0.000028  0.000001
 28  -1668.90591024  -0.0000000833  0.000004  0.000025  0.000013  0.000000
                  ***Gradient check signals convergence***
              ***Rediagonalizing the Fockian in SOSCF/NRSCF***

               *****************************************************
               *                     SUCCESS                       *
               *           SCF CONVERGED AFTER  29 CYCLES          *
               *****************************************************

Old exchange energy                            =    -59.270814059 Eh
New exchange energy                            =    -59.273832348 Eh
Exchange energy change after final integration =     -0.003018289 Eh
Total energy after final integration           =  -1668.908928544 Eh
Final COS-X integration done in                =    26.906 sec

----------------
TOTAL SCF ENERGY
----------------

Total Energy       :        -1668.90892854 Eh          -45413.32071 eV

Components:
Nuclear Repulsion  :          615.25083023 Eh           16741.82623 eV
Electronic Energy  :        -2284.15975877 Eh          -62155.14694 eV

One Electron Energy:        -3600.85796997 Eh          -97984.32679 eV
Two Electron Energy:         1316.69821119 Eh           35829.17985 eV

Virial components:
Potential Energy   :        -3207.38934729 Eh          -87277.50124 eV
Kinetic Energy     :         1538.48041875 Eh           41864.18053 eV
Virial Ratio       :            2.08477749


DFT components:
N(Alpha)           :       46.000014452191 electrons
N(Beta)            :       46.000014452191 electrons
N(Total)           :       92.000028904381 electrons
E(X)               :      -52.639507735450 Eh       
E(C)               :       -2.618923617297 Eh       
E(XC)              :      -55.258431352747 Eh       

---------------
SCF CONVERGENCE
---------------

  Last Energy change         ...   -1.1245e-08  Tolerance :   1.0000e-08
  Last MAX-Density change    ...    4.4430e-14  Tolerance :   1.0000e-07
  Last RMS-Density change    ...    2.8723e-16  Tolerance :   5.0000e-09
  Last Orbital Gradient      ...    1.9300e-06  Tolerance :   1.0000e-05
  Last Orbital Rotation      ...    1.0570e-06  Tolerance :   1.0000e-05

             **** THE GBW FILE WAS UPDATED (PbMACl3_mp2_md_8.orca.gbw) ****
             **** DENSITY FILE WAS UPDATED (PbMACl3_mp2_md_8.orca.scfp.tmp) ****
             **** ENERGY FILE WAS UPDATED (PbMACl3_mp2_md_8.orca.en.tmp) ****
----------------
ORBITAL ENERGIES
----------------

  NO   OCC          E(Eh)            E(eV) 
   0   2.0000    -102.873283     -2799.3243 
   1   2.0000    -102.847089     -2798.6116 
   2   2.0000    -102.844738     -2798.5476 
   3   2.0000     -14.961316      -407.1181 
   4   2.0000     -10.697345      -291.0895 
   5   2.0000      -9.884068      -268.9592 
   6   2.0000      -9.855710      -268.1875 
   7   2.0000      -9.854688      -268.1597 
   8   2.0000      -7.520779      -204.6508 
   9   2.0000      -7.519139      -204.6062 
  10   2.0000      -7.518795      -204.5968 
  11   2.0000      -7.492784      -203.8890 
  12   2.0000      -7.491403      -203.8515 
  13   2.0000      -7.490788      -203.8347 
  14   2.0000      -7.490582      -203.8291 
  15   2.0000      -7.489782      -203.8073 
  16   2.0000      -7.489713      -203.8054 
  17   2.0000      -5.789656      -157.5446 
  18   2.0000      -3.563215       -96.9600 
  19   2.0000      -3.559969       -96.8717 
  20   2.0000      -3.558593       -96.8343 
  21   2.0000      -1.164509       -31.6879 
  22   2.0000      -0.975446       -26.5432 
  23   2.0000      -0.970780       -26.4163 
  24   2.0000      -0.960725       -26.1427 
  25   2.0000      -0.954866       -25.9832 
  26   2.0000      -0.950075       -25.8528 
  27   2.0000      -0.911112       -24.7926 
  28   2.0000      -0.879507       -23.9326 
  29   2.0000      -0.860726       -23.4216 
  30   2.0000      -0.849189       -23.1076 
  31   2.0000      -0.714790       -19.4504 
  32   2.0000      -0.679528       -18.4909 
  33   2.0000      -0.598152       -16.2765 
  34   2.0000      -0.563351       -15.3296 
  35   2.0000      -0.530556       -14.4372 
  36   2.0000      -0.486328       -13.2337 
  37   2.0000      -0.411038       -11.1849 
  38   2.0000      -0.395760       -10.7692 
  39   2.0000      -0.384509       -10.4630 
  40   2.0000      -0.371887       -10.1196 
  41   2.0000      -0.355806        -9.6820 
  42   2.0000      -0.348991        -9.4965 
  43   2.0000      -0.342300        -9.3145 
  44   2.0000      -0.337098        -9.1729 
  45   2.0000      -0.254429        -6.9234 
  46   0.0000      -0.028771        -0.7829 
  47   0.0000       0.030530         0.8308 
  48   0.0000       0.049744         1.3536 
  49   0.0000       0.057108         1.5540 
  50   0.0000       0.074270         2.0210 
  51   0.0000       0.092990         2.5304 
  52   0.0000       0.108544         2.9536 
  53   0.0000       0.115048         3.1306 
  54   0.0000       0.126974         3.4551 
  55   0.0000       0.145133         3.9493 
  56   0.0000       0.153675         4.1817 
  57   0.0000       0.168866         4.5951 
  58   0.0000       0.199841         5.4379 
  59   0.0000       0.215506         5.8642 
  60   0.0000       0.234732         6.3874 
  61   0.0000       0.238503         6.4900 
  62   0.0000       0.248228         6.7546 
  63   0.0000       0.266364         7.2481 
  64   0.0000       0.294006         8.0003 
  65   0.0000       0.302739         8.2379 
  66   0.0000       0.318869         8.6769 
  67   0.0000       0.334482         9.1017 
  68   0.0000       0.340052         9.2533 
  69   0.0000       0.368131        10.0174 
  70   0.0000       0.384317        10.4578 
  71   0.0000       0.399427        10.8690 
  72   0.0000       0.419125        11.4050 
  73   0.0000       0.422254        11.4901 
  74   0.0000       0.431121        11.7314 
  75   0.0000       0.444690        12.1006 
  76   0.0000       0.459632        12.5072 
  77   0.0000       0.461890        12.5687 
  78   0.0000       0.465059        12.6549 
  79   0.0000       0.477329        12.9888 
  80   0.0000       0.481463        13.1013 
  81   0.0000       0.491800        13.3825 
  82   0.0000       0.494672        13.4607 
  83   0.0000       0.508892        13.8477 
  84   0.0000       0.516999        14.0683 
  85   0.0000       0.522014        14.2047 
  86   0.0000       0.539730        14.6868 
  87   0.0000       0.545617        14.8470 
  88   0.0000       0.556244        15.1362 
  89   0.0000       0.559549        15.2261 
  90   0.0000       0.580977        15.8092 
  91   0.0000       0.589387        16.0380 
  92   0.0000       0.598270        16.2797 
  93   0.0000       0.607675        16.5357 
  94   0.0000       0.615916        16.7599 
  95   0.0000       0.636485        17.3196 
  96   0.0000       0.646211        17.5843 
  97   0.0000       0.671346        18.2682 
  98   0.0000       0.704555        19.1719 
  99   0.0000       0.722152        19.6508 
 100   0.0000       0.746003        20.2998 
 101   0.0000       0.751485        20.4490 
 102   0.0000       0.792021        21.5520 
 103   0.0000       0.811558        22.0836 
 104   0.0000       0.823514        22.4090 
 105   0.0000       0.856526        23.3072 
 106   0.0000       0.863134        23.4871 
 107   0.0000       0.882417        24.0118 
 108   0.0000       0.903831        24.5945 
 109   0.0000       0.922391        25.0995 
 110   0.0000       0.934142        25.4193 
 111   0.0000       0.943371        25.6704 
 112   0.0000       0.956132        26.0177 
 113   0.0000       0.976915        26.5832 
 114   0.0000       0.993499        27.0345 
 115   0.0000       1.029193        28.0058 
 116   0.0000       1.036776        28.2121 
 117   0.0000       1.065535        28.9947 
 118   0.0000       1.076555        29.2946 
 119   0.0000       1.090296        29.6685 
 120   0.0000       1.117279        30.4027 
 121   0.0000       1.129422        30.7331 
 122   0.0000       1.163833        31.6695 
 123   0.0000       1.210342        32.9351 
 124   0.0000       1.270552        34.5735 
 125   0.0000       1.303287        35.4642 
 126   0.0000       1.307041        35.5664 
 127   0.0000       1.359853        37.0035 
 128   0.0000       1.374194        37.3937 
 129   0.0000       1.410093        38.3706 
 130   0.0000       1.477487        40.2045 
 131   0.0000       1.544157        42.0186 
 132   0.0000       1.589204        43.2444 
 133   0.0000       1.608618        43.7727 
 134   0.0000       1.638173        44.5770 
 135   0.0000       1.668068        45.3904 
 136   0.0000       1.755075        47.7580 
 137   0.0000       1.793982        48.8167 
 138   0.0000       1.812457        49.3195 
 139   0.0000       1.874999        51.0213 
 140   0.0000       1.905547        51.8526 
 141   0.0000       1.920816        52.2681 
 142   0.0000       1.924764        52.3755 
 143   0.0000       1.938327        52.7446 
 144   0.0000       1.952767        53.1375 
 145   0.0000       1.959968        53.3334 
 146   0.0000       1.975200        53.7479 
 147   0.0000       1.980253        53.8854 
 148   0.0000       1.987528        54.0834 
 149   0.0000       1.994328        54.2684 
 150   0.0000       2.016580        54.8739 
 151   0.0000       2.033158        55.3251 
 152   0.0000       2.035558        55.3904 
 153   0.0000       2.064366        56.1743 
 154   0.0000       2.069814        56.3225 
 155   0.0000       2.072869        56.4056 
 156   0.0000       2.084410        56.7197 
 157   0.0000       2.093799        56.9752 
 158   0.0000       2.120386        57.6986 
 159   0.0000       2.127383        57.8890 
 160   0.0000       2.137652        58.1685 
 161   0.0000       2.152761        58.5796 
 162   0.0000       2.166977        58.9664 
 163   0.0000       2.182232        59.3816 
 164   0.0000       2.201331        59.9013 
 165   0.0000       2.212702        60.2107 
 166   0.0000       2.219576        60.3977 
 167   0.0000       2.230005        60.6815 
 168   0.0000       2.232135        60.7395 
 169   0.0000       2.240375        60.9637 
 170   0.0000       2.250940        61.2512 
 171   0.0000       2.257955        61.4421 
 172   0.0000       2.258691        61.4621 
 173   0.0000       2.272617        61.8410 
 174   0.0000       2.283114        62.1267 
 175   0.0000       2.300620        62.6031 
 176   0.0000       2.302179        62.6455 
 177   0.0000       2.320351        63.1400 
 178   0.0000       2.324343        63.2486 
 179   0.0000       2.343047        63.7575 
 180   0.0000       2.358186        64.1695 
 181   0.0000       2.366554        64.3972 
 182   0.0000       2.382546        64.8324 
 183   0.0000       2.388131        64.9843 
 184   0.0000       2.394160        65.1484 
 185   0.0000       2.418218        65.8031 
 186   0.0000       2.418532        65.8116 
 187   0.0000       2.424851        65.9836 
 188   0.0000       2.434061        66.2342 
 189   0.0000       2.447881        66.6102 
 190   0.0000       2.468236        67.1641 
 191   0.0000       2.486890        67.6717 
 192   0.0000       2.508862        68.2696 
 193   0.0000       2.517174        68.4958 
 194   0.0000       2.550652        69.4068 
 195   0.0000       2.564333        69.7791 
 196   0.0000       2.586304        70.3769 
 197   0.0000       2.615430        71.1695 
 198   0.0000       2.659555        72.3702 
 199   0.0000       2.666213        72.5514 
 200   0.0000       2.684142        73.0392 
 201   0.0000       2.726119        74.1815 
 202   0.0000       2.760920        75.1284 
 203   0.0000       2.795167        76.0604 
 204   0.0000       2.801385        76.2296 
 205   0.0000       2.842295        77.3428 
 206   0.0000       2.886031        78.5329 
 207   0.0000       2.913461        79.2793 
 208   0.0000       2.957018        80.4645 
 209   0.0000       3.053422        83.0878 
 210   0.0000       3.078495        83.7701 
 211   0.0000       3.132849        85.2492 
 212   0.0000       3.169077        86.2350 
 213   0.0000       3.220422        87.6321 
 214   0.0000       3.259402        88.6928 
 215   0.0000       3.277802        89.1935 
 216   0.0000       3.353284        91.2475 
 217   0.0000       3.385567        92.1260 
 218   0.0000       3.522248        95.8452 
 219   0.0000       3.584018        97.5261 
 220   0.0000       3.613869        98.3384 
 221   0.0000       3.681111       100.1681 
 222   0.0000       3.851541       104.8058 
 223   0.0000       3.887229       105.7769 
 224   0.0000       3.957024       107.6761 
 225   0.0000       4.095813       111.4527 
 226   0.0000       4.335535       117.9759 
 227   0.0000       4.443775       120.9213 
 228   0.0000       4.578460       124.5862 
 229   0.0000       4.802777       130.6902 
 230   0.0000       4.870000       132.5194 
 231   0.0000       4.936854       134.3386 
 232   0.0000       4.945783       134.5816 
 233   0.0000       5.030660       136.8912 
 234   0.0000       5.136538       139.7723 
 235   0.0000       5.187743       141.1657 
 236   0.0000       5.327756       144.9756 
 237   0.0000       5.443231       148.1179 
 238   0.0000       5.657538       153.9494 
 239   0.0000       6.085067       165.5831 
 240   0.0000      11.036750       300.3252 
 241   0.0000      11.071394       301.2680 
 242   0.0000      11.075132       301.3697 
 243   0.0000      11.098103       301.9947 
 244   0.0000      11.132059       302.9187 
 245   0.0000      11.163369       303.7707 
 246   0.0000      11.228296       305.5375 
 247   0.0000      11.259432       306.3847 
 248   0.0000      11.264515       306.5230 
 249   0.0000      22.584457       614.5543 
 250   0.0000      25.284051       688.0140 
 251   0.0000      25.397855       691.1108 
 252   0.0000      25.674376       698.6353 
 253   0.0000      32.482084       883.8824 
 254   0.0000      35.634818       969.6727 
 255   0.0000      35.838097       975.2042 
 256   0.0000      35.847752       975.4669 
 257   0.0000      36.015747       980.0383 
 258   0.0000     123.665890      3365.1200 

                    ********************************
                    * MULLIKEN POPULATION ANALYSIS *
                    ********************************

-----------------------
MULLIKEN ATOMIC CHARGES
-----------------------
   0 C :   -0.324493
   1 N :   -0.268484
   2 H :    0.350984
   3 H :    0.269427
   4 H :    0.242145
   5 H :    0.153090
   6 H :    0.222473
   7 H :    0.147723
   8 Pb:    0.751573
   9 Cl:   -0.510947
  10 Cl:   -0.554185
  11 Cl:   -0.479306
Sum of atomic charges:   -0.0000000

--------------------------------
MULLIKEN REDUCED ORBITAL CHARGES
--------------------------------
  0 C s       :     3.272065  s :     3.272065
      pz      :     0.801587  p :     2.974440
      px      :     1.150518
      py      :     1.022336
      dz2     :     0.015481  d :     0.071770
      dxz     :     0.011955
      dyz     :     0.021600
      dx2y2   :     0.012519
      dxy     :     0.010216
      f0      :     0.001089  f :     0.006217
      f+1     :     0.000792
      f-1     :     0.001657
      f+2     :     0.000998
      f-2     :     0.000585
      f+3     :     0.000756
      f-3     :     0.000342
  1 N s       :     3.409129  s :     3.409129
      pz      :     1.217195  p :     3.809311
      px      :     1.285835
      py      :     1.306280
      dz2     :     0.014597  d :     0.047633
      dxz     :     0.004769
      dyz     :     0.009285
      dx2y2   :     0.012305
      dxy     :     0.006678
      f0      :     0.000290  f :     0.002412
      f+1     :     0.000289
      f-1     :     0.000827
      f+2     :     0.000232
      f-2     :     0.000189
      f+3     :     0.000444
      f-3     :     0.000141
  2 H s       :     0.588614  s :     0.588614
      pz      :     0.006550  p :     0.060403
      px      :     0.009882
      py      :     0.043971
  3 H s       :     0.695219  s :     0.695219
      pz      :     0.006230  p :     0.035354
      px      :     0.021211
      py      :     0.007913
  4 H s       :     0.715773  s :     0.715773
      pz      :     0.019216  p :     0.042082
      px      :     0.009080
      py      :     0.013786
  5 H s       :     0.822978  s :     0.822978
      pz      :     0.009814  p :     0.023932
      px      :     0.006165
      py      :     0.007953
  6 H s       :     0.751096  s :     0.751096
      pz      :     0.004724  p :     0.026431
      px      :     0.017387
      py      :     0.004320
  7 H s       :     0.831686  s :     0.831686
      pz      :     0.003044  p :     0.020591
      px      :     0.006975
      py      :     0.010572
  8 Pbs       :     3.967373  s :     3.967373
      pz      :     2.392691  p :     7.032117
      px      :     2.318301
      py      :     2.321125
      dz2     :     2.036110  d :    10.165851
      dxz     :     2.029819
      dyz     :     2.029651
      dx2y2   :     2.038068
      dxy     :     2.032203
      f0      :     0.007354  f :     0.083085
      f+1     :     0.009471
      f-1     :     0.008283
      f+2     :     0.012264
      f-2     :     0.008218
      f+3     :     0.016873
      f-3     :     0.020621
  9 Cls       :     5.952723  s :     5.952723
      pz      :     3.920419  p :    11.521876
      px      :     3.785236
      py      :     3.816221
      dz2     :     0.005114  d :     0.034468
      dxz     :     0.003177
      dyz     :     0.002906
      dx2y2   :     0.014899
      dxy     :     0.008372
      f0      :     0.000172  f :     0.001880
      f+1     :     0.000219
      f-1     :     0.000317
      f+2     :     0.000086
      f-2     :     0.000082
      f+3     :     0.000397
      f-3     :     0.000608
 10 Cls       :     5.953778  s :     5.953778
      pz      :     3.908639  p :    11.574662
      px      :     3.912285
      py      :     3.753738
      dz2     :     0.003694  d :     0.024663
      dxz     :     0.003365
      dyz     :     0.003874
      dx2y2   :     0.010096
      dxy     :     0.003633
      f0      :     0.000072  f :     0.001083
      f+1     :     0.000099
      f-1     :     0.000189
      f+2     :     0.000185
      f-2     :     0.000026
      f+3     :     0.000195
      f-3     :     0.000316
 11 Cls       :     5.946064  s :     5.946064
      pz      :     3.861685  p :    11.506806
      px      :     3.809457
      py      :     3.835665
      dz2     :     0.003764  d :     0.024940
      dxz     :     0.006894
      dyz     :     0.005477
      dx2y2   :     0.003081
      dxy     :     0.005724
      f0      :     0.000151  f :     0.001495
      f+1     :     0.000220
      f-1     :     0.000166
      f+2     :     0.000190
      f-2     :     0.000439
      f+3     :     0.000154
      f-3     :     0.000176


                     *******************************
                     * LOEWDIN POPULATION ANALYSIS *
                     *******************************

----------------------
LOEWDIN ATOMIC CHARGES
----------------------
   0 C :   -0.344443
   1 N :    0.094224
   2 H :    0.104761
   3 H :    0.180091
   4 H :    0.129460
   5 H :    0.115274
   6 H :    0.136385
   7 H :    0.124253
   8 Pb:   -0.168906
   9 Cl:   -0.109620
  10 Cl:   -0.167956
  11 Cl:   -0.093522

-------------------------------
LOEWDIN REDUCED ORBITAL CHARGES
-------------------------------
  0 C s       :     2.869530  s :     2.869530
      pz      :     0.925314  p :     3.133363
      px      :     1.142486
      py      :     1.065563
      dz2     :     0.069903  d :     0.306332
      dxz     :     0.053039
      dyz     :     0.092349
      dx2y2   :     0.045939
      dxy     :     0.045102
      f0      :     0.005129  f :     0.035217
      f+1     :     0.006015
      f-1     :     0.007591
      f+2     :     0.007819
      f-2     :     0.004348
      f+3     :     0.002894
      f-3     :     0.001423
  1 N s       :     2.983012  s :     2.983012
      pz      :     1.232959  p :     3.743924
      px      :     1.236277
      py      :     1.274688
      dz2     :     0.050387  d :     0.167916
      dxz     :     0.018311
      dyz     :     0.038781
      dx2y2   :     0.038411
      dxy     :     0.022025
      f0      :     0.001456  f :     0.010923
      f+1     :     0.001863
      f-1     :     0.002601
      f+2     :     0.001772
      f-2     :     0.001219
      f+3     :     0.001460
      f-3     :     0.000552
  2 H s       :     0.697720  s :     0.697720
      pz      :     0.015902  p :     0.197519
      px      :     0.030179
      py      :     0.151438
  3 H s       :     0.713496  s :     0.713496
      pz      :     0.020410  p :     0.106414
      px      :     0.061896
      py      :     0.024108
  4 H s       :     0.734554  s :     0.734554
      pz      :     0.056075  p :     0.135986
      px      :     0.031021
      py      :     0.048890
  5 H s       :     0.813356  s :     0.813356
      pz      :     0.026697  p :     0.071370
      px      :     0.019733
      py      :     0.024940
  6 H s       :     0.790683  s :     0.790683
      pz      :     0.011685  p :     0.072932
      px      :     0.049133
      py      :     0.012113
  7 H s       :     0.817800  s :     0.817800
      pz      :     0.009136  p :     0.057947
      px      :     0.021258
      py      :     0.027554
  8 Pbs       :     3.651693  s :     3.651693
      pz      :     2.513059  p :     7.504143
      px      :     2.477907
      py      :     2.513177
      dz2     :     2.140478  d :    10.749465
      dxz     :     2.121317
      dyz     :     2.114246
      dx2y2   :     2.210846
      dxy     :     2.162578
      f0      :     0.019723  f :     0.263605
      f+1     :     0.030229
      f-1     :     0.027011
      f+2     :     0.029710
      f-2     :     0.031611
      f+3     :     0.048579
      f-3     :     0.076743
  9 Cls       :     5.703463  s :     5.703463
      pz      :     3.866517  p :    11.331176
      px      :     3.749610
      py      :     3.715049
      dz2     :     0.013339  d :     0.070154
      dxz     :     0.003561
      dyz     :     0.002864
      dx2y2   :     0.036829
      dxy     :     0.013561
      f0      :     0.000187  f :     0.004828
      f+1     :     0.000712
      f-1     :     0.000744
      f+2     :     0.000198
      f-2     :     0.000085
      f+3     :     0.000934
      f-3     :     0.001966
 10 Cls       :     5.722679  s :     5.722679
      pz      :     3.842264  p :    11.388929
      px      :     3.829402
      py      :     3.717263
      dz2     :     0.009969  d :     0.053442
      dxz     :     0.006963
      dyz     :     0.004199
      dx2y2   :     0.028093
      dxy     :     0.004217
      f0      :     0.000097  f :     0.002906
      f+1     :     0.000241
      f-1     :     0.000710
      f+2     :     0.000302
      f-2     :     0.000049
      f+3     :     0.000305
      f-3     :     0.001201
 11 Cls       :     5.695832  s :     5.695832
      pz      :     3.804253  p :    11.342865
      px      :     3.758900
      py      :     3.779712
      dz2     :     0.004125  d :     0.051108
      dxz     :     0.018666
      dyz     :     0.013944
      dx2y2   :     0.002995
      dxy     :     0.011378
      f0      :     0.000340  f :     0.003717
      f+1     :     0.000551
      f-1     :     0.000408
      f+2     :     0.000254
      f-2     :     0.001552
      f+3     :     0.000236
      f-3     :     0.000376


                      *****************************
                      * MAYER POPULATION ANALYSIS *
                      *****************************

  NA   - Mulliken gross atomic population
  ZA   - Total nuclear charge
  QA   - Mulliken gross atomic charge
  VA   - Mayer's total valence
  BVA  - Mayer's bonded valence
  FA   - Mayer's free valence

  ATOM       NA         ZA         QA         VA         BVA        FA
  0 C      6.3245     6.0000    -0.3245     3.7593     3.7593    -0.0000
  1 N      7.2685     7.0000    -0.2685     3.4353     3.4353     0.0000
  2 H      0.6490     1.0000     0.3510     0.9132     0.9132    -0.0000
  3 H      0.7306     1.0000     0.2694     0.9357     0.9357     0.0000
  4 H      0.7579     1.0000     0.2421     0.9655     0.9655     0.0000
  5 H      0.8469     1.0000     0.1531     0.9638     0.9638    -0.0000
  6 H      0.7775     1.0000     0.2225     0.9698     0.9698    -0.0000
  7 H      0.8523     1.0000     0.1477     0.9703     0.9703     0.0000
  8 Pb    21.2484    22.0000     0.7516     1.9874     1.9874    -0.0000
  9 Cl    17.5109    17.0000    -0.5109     0.8202     0.8202    -0.0000
 10 Cl    17.5542    17.0000    -0.5542     0.7319     0.7319    -0.0000
 11 Cl    17.4793    17.0000    -0.4793     0.8879     0.8879     0.0000

  Mayer bond orders larger than 0.1
B(  0-C ,  1-N ) :   0.8886 B(  0-C ,  5-H ) :   0.9698 B(  0-C ,  6-H ) :   0.9394 
B(  0-C ,  7-H ) :   0.9616 B(  1-N ,  2-H ) :   0.6787 B(  1-N ,  3-H ) :   0.9054 
B(  1-N ,  4-H ) :   0.9177 B(  2-H ,  9-Cl) :   0.3003 B(  8-Pb,  9-Cl) :   0.4818 
B(  8-Pb, 10-Cl) :   0.6357 B(  8-Pb, 11-Cl) :   0.8636 

-------
TIMINGS
-------

Total SCF time: 0 days 0 hours 7 min 57 sec 

Total time                  ....     477.972 sec
Sum of individual times     ....     450.075 sec  ( 94.2%)

Fock matrix formation       ....     444.713 sec  ( 93.0%)
  Coulomb formation         ....     367.495 sec  ( 82.6% of F)
  Split-RI-J                ....      25.810 sec  (  5.8% of F)
  Chain of spheres X        ....     368.520 sec  ( 82.9% of F)
  COS-X 1 center corr.      ....       0.000 sec  (  0.0% of F)
  XC integration            ....      77.200 sec  ( 17.4% of F)
    Basis function eval.    ....      22.527 sec  ( 29.2% of XC)
    Density eval.           ....      21.010 sec  ( 27.2% of XC)
    XC-Functional eval.     ....       4.275 sec  (  5.5% of XC)
    XC-Potential eval.      ....      28.224 sec  ( 36.6% of XC)
Diagonalization             ....       0.798 sec  (  0.2%)
Density matrix formation    ....       0.065 sec  (  0.0%)
Population analysis         ....       0.070 sec  (  0.0%)
Initial guess               ....       0.143 sec  (  0.0%)
Orbital Transformation      ....       0.000 sec  (  0.0%)
Orbital Orthonormalization  ....       0.140 sec  (  0.0%)
DIIS solution               ....       0.227 sec  (  0.0%)
SOSCF solution              ....       0.115 sec  (  0.0%)
Grid generation             ....       3.944 sec  (  0.8%)

------------------------------------------------------------------------------
                              ORCA MP2 CALCULATION
------------------------------------------------------------------------------


----------------------
RI-MP2 ENERGY+GRADIENT
----------------------
Dimension of the basis                    ...  259
Memory devoted to MP2                     ... 1000 MB   
Data format for buffers                   ... DOUBLE
Compression type for matrix containers    ... UNCOMPRESSED
Overall scaling of the MP2 energy         ...   2.700e-01 Eh
Calculating two index integrals           ... done (    0.011 sec)
Cholesky decomposition of the V-matrix    ... done
Cholesky decomposition of V**-1           ... done (    0.027 sec)

-----------------
RI-TRANSFORMATION (AUX index driven)
-----------------

Dimension of the orbital-basis         ... 259
Dimension of the aux-basis             ... 493
Transformation of internal MOs         ...    0-  45
Transformation of internal/external MOs...    0-  45 to   46- 258
Number Format for Storage              ... Double (8 Byte)
Integral mode                          ... Direct

First Phase: integral generation and transformation of MO indices
  Aux angular momentum 0               ... done (    0.489 sec)
  Aux angular momentum 1               ... done (    0.365 sec)
  Aux angular momentum 2               ... done (    0.442 sec)
  Aux angular momentum 3               ... done (    0.271 sec)
  Aux angular momentum 4               ... done (    0.275 sec)
Closing buffer VIJ ( 0.00 GB; CompressionRatio= 1.95)
Closing buffer VIA ( 0.04 GB; CompressionRatio= 1.00)
  Phase 1 completed in     1.939 sec
Second Phase: sorting and transformation of aux index

IJ-Transformation
Memory available                       ... 990 MB 
Max. # MO pairs treated in a batch     ... 46    
# of internal orbitals                 ... 46
# batches for internal orbitals        ... 1
Closing buffer IJV ( 0.00 GB; CompressionRatio= 1.00)
(ij|v) transformation done in     0.122 sec

IA-Transformation
Memory available                       ... 990 MB 
Max. # MO pairs treated in a batch     ... 46    
# of internal orbitals                 ... 46
# batches for internal orbitals        ... 1
Closing buffer IAV ( 0.04 GB; CompressionRatio= 1.00)
(ia|v) transformation done in     0.507 sec

  Phase 2 completed in     0.647 sec
RI-Integral transformation completed in     2.586 sec
Opening buffers                              ... done

Starting loop over batches of integrals:

Operator 0  - window                       ... (  0- 45)x( 46-258)
Operator 0  - Memory available             ...  1000 MB
Operator 0  - Memory needed per MO         ...   1.6 MB
Operator 0  - Number of orbitals per batch ... 46
Operator 0  - Number of batches            ... 1

OPERATOR  0   PASS   0:  MOs     0 ...   45
  Reading integrals       ... ok
  Internal MO   2
  Internal MO   5
  Internal MO   8
  Internal MO  11
  Internal MO  14
  Internal MO  17
  Internal MO  20
  Internal MO  23
  Internal MO  26
  Internal MO  29
  Internal MO  32
  Internal MO  35
  Internal MO  38
  Internal MO  41
  Internal MO  44
Closing buffer GIPV ( 0.04 GB; CompressionRatio= 1.00)
Time spent in pair loops =    54.316 sec

-----------------------------------------------
 RI-MP2 CORRELATION ENERGY:     -0.587638580 Eh
-----------------------------------------------


---------------------
MP2 DENSITY FORMATION
---------------------

Completing the external part of the density      ... done
Storing the unrelaxed density                    ... done

Calculating the xc-kernel                        ... done
Calculating G(D)                                 ... done
Completing the Lagrangian                        ... done
Solving the Z-vector equations                   ... 

------------------------------------------------------------------------------
                           ORCA CP-SCF CALCULATION
------------------------------------------------------------------------------

Input orbitals are from        ... PbMACl3_mp2_md_8.orca.gbw
Input Perturbation             ... PbMACl3_mp2_md_8.orca.pin.tmp
Wavefunction output            ... PbMACl3_mp2_md_8.orca.pout.tmp
Perturbation mode              ... Real perturbation
Solver                         ... DIIS
   MaxDIIS                     ... 20
   Levelshift                  ...    3.000e-01 Eh
Max. number of iterations      ... 128
Convergence tolerance          ... 1.000e-08
Integral handling              ... Direct
COSX GridX                     ... 1
Number of perturbations        ... 1
Number of operators            ... 1
Orbital ranges used for CP-SCF:
 Operator 0:  Orbitals   0... 45  to  46...258
DFT calculation                         ... on
Exchange functional (SCF)               ... B88
Exchange functional (CP-SCF)            ... B88
   X-Alpha parameter    XAlpha (SCF)    ...  0.666667
   X-Alpha parameter    XAlpha (CP-SCF) ...  0.666667
   Becke's b parameter  XBeta (SCF)     ...  0.004200
   Becke's b parameter  XBeta (CP-SCF)  ...  0.004200
Correlation functional (SCF)            ... LYP
Correlation functional (CP-SCF)         ... LYP
 LDA part of GGA corr.  LDAOpt (SCF)    ... VWN-3
 LDA part of GGA corr.  LDAOpt (CP-SCF) ... VWN-3
Hybrid DFT                              ... on
   Exchange mixing (SCF)                ...  0.530
   Exchange mixing (CP-SCF)             ...  0.530
   GGA exch. scaling(SCF)               ...  0.470
   GGA exch. scaling (CP-SCF)           ...  0.470
   GGA corr. scaling (SCF)              ...  0.730
   GGA corr. scaling (CP-SCF)           ...  0.730
The RIJCOSX approximation is active
Variables per vector in CP-SCF ... 9798
Number of vectors sought       ... 1
Calculating the xc-kernel      ... done

Solving the CP-SCF equations by a DIIS algorithm

-----------------
CP-SCF ITERATIONS
-----------------
  Iteration   0: MaxR=  0.091277192
  Iteration   1: MaxR=  0.043604841
  Iteration   2: MaxR=  0.013078943
  Iteration   3: MaxR=  0.006108827
  Iteration   4: MaxR=  0.003545969
  Iteration   5: MaxR=  0.001682171
  Iteration   6: MaxR=  0.000725201
  Iteration   7: MaxR=  0.000237111
  Iteration   8: MaxR=  0.000100129
  Iteration   9: MaxR=  0.000037154
  Iteration  10: MaxR=  0.000017442
  Iteration  11: MaxR=  0.000006771
  Iteration  12: MaxR=  0.000002656
  Iteration  13: MaxR=  0.000000837
  Iteration  14: MaxR=  0.000000297
  Iteration  15: MaxR=  0.000000109
  Iteration  16: MaxR=  0.000000034
  Iteration  17: MaxR=  0.000000015
  Iteration  18: MaxR=  0.000000006
                              *** THE CP-SCF HAS CONVERGED *** 
done
Finalizing the relaxed density                   ... done
Transforming P to the AO basis                   ... done
Storing the relaxed density                      ... done

------------------------------------
ENERGY WEIGHTED DENSITY FINALIZATION
------------------------------------

Gathering the parts of the W-matrix              ... done
Forming the Z-density                            ... done
Transforming Z to the AO basis                   ... done
Calculating G(Z)                                 ... done
Finalizing the W-matrix                          ... done
Transforming W to the AO basis and storing       ... done
Entering the RIJONX and RIJCOSX sections
Starting the three-index derivative integrals:
Operator 0  - Memory available             ...  1000 MB
Operator 0  - Memory needed per MO         ...   1.0 MB
Operator 0  - Number of orbitals per batch ... 46
Operator 0  - Number of batches            ... 1

OPERATOR  0   PASS   0:  MOs     0 ...   45

----------------------------------
MP2 DERIVATIVE INTEGRAL GENERATION
----------------------------------


Input Correlated Electron Density   ... PbMACl3_mp2_md_8.orca.pmp2re
Input Energy Weighted Density       ... PbMACl3_mp2_md_8.orca.wmp2.tmp
Input SCF Electron Density          ... PbMACl3_mp2_md_8.orca.scfp.tmp

One-Electron Terms    ...
  ECP gradient                                           ... One-Electron Terms done

-----------------------------------------------------------
MP2 COSX Grid Generation
-----------------------------------------------------------

General Integration Accuracy     IntAcc      ...  4.340
Radial Grid Type                 RadialGrid  ... Gauss-Chebyshev
Angular Grid (max. acc.)         AngularGrid ... Lebedev-302
Angular grid pruning method      GridPruning ... 3 (G Style)
Weight generation scheme         WeightScheme... Becke
Basis function cutoff            BFCut       ...    1.0000e-11
Integration weight cutoff        WCut        ...    1.0000e-14
Grids for H and He will be reduced by one unit

# of grid points (after initial pruning)     ...  57718 (   0.0 sec)
# of grid points (after weights+screening)   ...  54126 (   0.2 sec)
nearest neighbour list constructed           ...    0.0 sec
Grid point re-assignment to atoms done       ...    0.0 sec
Grid point division into batches done        ...    0.3 sec
Reduced shell lists constructed in    1.0 sec

Total number of grid points                  ...    54126
Total number of batches                      ...      850
Average number of points per batch           ...       63
Average number of grid points per atom       ...     4510
Average number of shells per batch           ...    57.60 (57.03%)
Average number of basis functions per batch  ...   153.29 (59.18%)
Average number of large shells per batch     ...    44.31 (76.94%)
Average number of large basis fcns per batch ...   116.05 (75.71%)
Maximum spatial batch extension              ...  29.65, 31.41, 35.78 au
Average spatial batch extension              ...   2.96,  2.97,  3.25 au

Overlap Fitting                  UseSFitting ... on
Two electron COSX terms .... 
Integration Timings:
Total Time                  =   114.8 sec
Basis fcn evaluation        =     0.4 sec
Density evaluation          =     1.2 sec
Integral evaluation         =   110.8 sec
K(P) evaluation             =     1.0 sec
                          .... COSX two electron terms done
COSX two-electron contribution to the gradient
     0:     0.024044     0.018016    -0.116077
     1:    -0.044982    -0.038834     0.071647
     2:    -0.114138    -0.102350    -0.003721
     3:     0.210377    -0.044146     0.016067
     4:    -0.024841     0.128658    -0.186961
     5:    -0.024901    -0.104767     0.122499
     6:    -0.159134     0.020343     0.060591
     7:     0.096411     0.135451     0.021096
     8:     0.038741     0.013956    -0.029227
     9:     0.048809    -0.030781    -0.010515
    10:     0.009322     0.056370     0.004002
    11:    -0.060193    -0.050964     0.051175
Exchange-correlation gradient    ... done
Dispersion correction            ... 
Entering the calculation of the dispersion correction...

Checking the input atom types...

Done
done

                *********************************************
                * UNRELAXED MP2 DENSITY POPULATION ANALYSIS *
                *********************************************

------------------------------------------------------------------------------
                           ORCA POPULATION ANALYSIS
------------------------------------------------------------------------------
Input electron density              ... PbMACl3_mp2_md_8.orca.pmp2ur
BaseName (.gbw .S,...)              ... PbMACl3_mp2_md_8.orca

                    ********************************
                    * MULLIKEN POPULATION ANALYSIS *
                    ********************************

-----------------------
MULLIKEN ATOMIC CHARGES
-----------------------
   0 C :   -0.329331
   1 N :   -0.268139
   2 H :    0.348645
   3 H :    0.269451
   4 H :    0.242597
   5 H :    0.154057
   6 H :    0.222801
   7 H :    0.148846
   8 Pb:    0.735924
   9 Cl:   -0.504857
  10 Cl:   -0.547481
  11 Cl:   -0.472515
Sum of atomic charges:   -0.0000000

--------------------------------
MULLIKEN REDUCED ORBITAL CHARGES
--------------------------------
  0 C s       :     3.270935  s :     3.270935
      pz      :     0.801590  p :     2.969941
      px      :     1.147728
      py      :     1.020623
      dz2     :     0.017085  d :     0.081083
      dxz     :     0.014029
      dyz     :     0.023017
      dx2y2   :     0.014645
      dxy     :     0.012309
      f0      :     0.001260  f :     0.007372
      f+1     :     0.000940
      f-1     :     0.001797
      f+2     :     0.001169
      f-2     :     0.000759
      f+3     :     0.000922
      f-3     :     0.000526
  1 N s       :     3.407305  s :     3.407305
      pz      :     1.213904  p :     3.798819
      px      :     1.282704
      py      :     1.302210
      dz2     :     0.016719  d :     0.058549
      dxz     :     0.006946
      dyz     :     0.011386
      dx2y2   :     0.014556
      dxy     :     0.008941
      f0      :     0.000448  f :     0.003466
      f+1     :     0.000436
      f-1     :     0.000976
      f+2     :     0.000385
      f-2     :     0.000339
      f+3     :     0.000589
      f-3     :     0.000292
  2 H s       :     0.590049  s :     0.590049
      pz      :     0.006961  p :     0.061306
      px      :     0.010275
      py      :     0.044069
  3 H s       :     0.694519  s :     0.694519
      pz      :     0.006504  p :     0.036030
      px      :     0.021352
      py      :     0.008174
  4 H s       :     0.714661  s :     0.714661
      pz      :     0.019401  p :     0.042742
      px      :     0.009330
      py      :     0.014011
  5 H s       :     0.820937  s :     0.820937
      pz      :     0.010157  p :     0.025006
      px      :     0.006522
      py      :     0.008327
  6 H s       :     0.749805  s :     0.749805
      pz      :     0.005121  p :     0.027395
      px      :     0.017601
      py      :     0.004673
  7 H s       :     0.829553  s :     0.829553
      pz      :     0.003418  p :     0.021600
      px      :     0.007317
      py      :     0.010865
  8 Pbs       :     3.946164  s :     3.946164
      pz      :     2.401539  p :     7.060546
      px      :     2.328254
      py      :     2.330753
      dz2     :     2.030361  d :    10.137862
      dxz     :     2.024251
      dyz     :     2.024120
      dx2y2   :     2.032408
      dxy     :     2.026722
      f0      :     0.012617  f :     0.119504
      f+1     :     0.014629
      f-1     :     0.013422
      f+2     :     0.017595
      f-2     :     0.013330
      f+3     :     0.022183
      f-3     :     0.025728
  9 Cls       :     5.948152  s :     5.948152
      pz      :     3.905744  p :    11.477782
      px      :     3.770629
      py      :     3.801409
      dz2     :     0.012894  d :     0.074168
      dxz     :     0.011106
      dyz     :     0.010848
      dx2y2   :     0.022892
      dxy     :     0.016428
      f0      :     0.000566  f :     0.004754
      f+1     :     0.000610
      f-1     :     0.000710
      f+2     :     0.000500
      f-2     :     0.000486
      f+3     :     0.000838
      f-3     :     0.001043
 10 Cls       :     5.949200  s :     5.949200
      pz      :     3.893659  p :    11.529697
      px      :     3.897077
      py      :     3.738962
      dz2     :     0.011639  d :     0.064678
      dxz     :     0.011319
      dyz     :     0.011951
      dx2y2   :     0.018009
      dxy     :     0.011761
      f0      :     0.000468  f :     0.003906
      f+1     :     0.000490
      f-1     :     0.000587
      f+2     :     0.000593
      f-2     :     0.000426
      f+3     :     0.000615
      f-3     :     0.000727
 11 Cls       :     5.941368  s :     5.941368
      pz      :     3.847063  p :    11.463524
      px      :     3.795129
      py      :     3.821332
      dz2     :     0.011554  d :     0.063388
      dxz     :     0.014542
      dyz     :     0.013145
      dx2y2   :     0.010804
      dxy     :     0.013343
      f0      :     0.000545  f :     0.004236
      f+1     :     0.000617
      f-1     :     0.000559
      f+2     :     0.000585
      f-2     :     0.000822
      f+3     :     0.000543
      f-3     :     0.000563


                     *******************************
                     * LOEWDIN POPULATION ANALYSIS *
                     *******************************

----------------------
LOEWDIN ATOMIC CHARGES
----------------------
   0 C :   -0.347864
   1 N :    0.093682
   2 H :    0.104045
   3 H :    0.180059
   4 H :    0.129753
   5 H :    0.115910
   6 H :    0.136860
   7 H :    0.125019
   8 Pb:   -0.179524
   9 Cl:   -0.105815
  10 Cl:   -0.163221
  11 Cl:   -0.088904

-------------------------------
LOEWDIN REDUCED ORBITAL CHARGES
-------------------------------
  0 C s       :     2.869023  s :     2.869023
      pz      :     0.923734  p :     3.125660
      px      :     1.139061
      py      :     1.062865
      dz2     :     0.071622  d :     0.316151
      dxz     :     0.054943
      dyz     :     0.094142
      dx2y2   :     0.048198
      dxy     :     0.047246
      f0      :     0.005353  f :     0.037030
      f+1     :     0.006240
      f-1     :     0.007950
      f+2     :     0.008065
      f-2     :     0.004586
      f+3     :     0.003181
      f-3     :     0.001654
  1 N s       :     2.982414  s :     2.982414
      pz      :     1.229022  p :     3.732248
      px      :     1.232776
      py      :     1.270449
      dz2     :     0.052572  d :     0.179385
      dxz     :     0.020362
      dyz     :     0.041234
      dx2y2   :     0.040845
      dxy     :     0.024374
      f0      :     0.001632  f :     0.012270
      f+1     :     0.002047
      f-1     :     0.002847
      f+2     :     0.001948
      f-2     :     0.001394
      f+3     :     0.001669
      f-3     :     0.000732
  2 H s       :     0.697564  s :     0.697564
      pz      :     0.016402  p :     0.198392
      px      :     0.030850
      py      :     0.151139
  3 H s       :     0.712045  s :     0.712045
      pz      :     0.020746  p :     0.107896
      px      :     0.062683
      py      :     0.024466
  4 H s       :     0.732883  s :     0.732883
      pz      :     0.056715  p :     0.137364
      px      :     0.031345
      py      :     0.049304
  5 H s       :     0.810734  s :     0.810734
      pz      :     0.027530  p :     0.073356
      px      :     0.020138
      py      :     0.025688
  6 H s       :     0.788408  s :     0.788408
      pz      :     0.012220  p :     0.074731
      px      :     0.049942
      py      :     0.012569
  7 H s       :     0.815167  s :     0.815167
      pz      :     0.009600  p :     0.059814
      px      :     0.021885
      py      :     0.028329
  8 Pbs       :     3.634292  s :     3.634292
      pz      :     2.520566  p :     7.527661
      px      :     2.486020
      py      :     2.521075
      dz2     :     2.133887  d :    10.718100
      dxz     :     2.115240
      dyz     :     2.108245
      dx2y2   :     2.204324
      dxy     :     2.156405
      f0      :     0.025001  f :     0.299470
      f+1     :     0.035343
      f-1     :     0.032157
      f+2     :     0.035005
      f-2     :     0.036711
      f+3     :     0.053763
      f-3     :     0.081490
  9 Cls       :     5.699083  s :     5.699083
      pz      :     3.852183  p :    11.289203
      px      :     3.735619
      py      :     3.701401
      dz2     :     0.021137  d :     0.109741
      dxz     :     0.011423
      dyz     :     0.010816
      dx2y2   :     0.044789
      dxy     :     0.021577
      f0      :     0.000587  f :     0.007789
      f+1     :     0.001117
      f-1     :     0.001150
      f+2     :     0.000619
      f-2     :     0.000491
      f+3     :     0.001394
      f-3     :     0.002429
 10 Cls       :     5.718282  s :     5.718282
      pz      :     3.827702  p :    11.345654
      px      :     3.814756
      py      :     3.703196
      dz2     :     0.017973  d :     0.093473
      dxz     :     0.014911
      dyz     :     0.012194
      dx2y2   :     0.036089
      dxy     :     0.012304
      f0      :     0.000499  f :     0.005812
      f+1     :     0.000640
      f-1     :     0.001125
      f+2     :     0.000718
      f-2     :     0.000450
      f+3     :     0.000742
      f-3     :     0.001638
 11 Cls       :     5.691519  s :     5.691519
      pz      :     3.790205  p :    11.301196
      px      :     3.745097
      py      :     3.765894
      dz2     :     0.011860  d :     0.089624
      dxz     :     0.026368
      dyz     :     0.021652
      dx2y2   :     0.010667
      dxy     :     0.019076
      f0      :     0.000748  f :     0.006565
      f+1     :     0.000962
      f-1     :     0.000812
      f+2     :     0.000662
      f-2     :     0.001972
      f+3     :     0.000634
      f-3     :     0.000775


                      *****************************
                      * MAYER POPULATION ANALYSIS *
                      *****************************

  NA   - Mulliken gross atomic population
  ZA   - Total nuclear charge
  QA   - Mulliken gross atomic charge
  VA   - Mayer's total valence
  BVA  - Mayer's bonded valence
  FA   - Mayer's free valence

  ATOM       NA         ZA         QA         VA         BVA        FA
  0 C      6.3293     6.0000    -0.3293     3.8111     3.6859     0.1252
  1 N      7.2681     7.0000    -0.2681     3.5088     3.3655     0.1433
  2 H      0.6514     1.0000     0.3486     0.9163     0.8947     0.0216
  3 H      0.7305     1.0000     0.2695     0.9379     0.9192     0.0187
  4 H      0.7574     1.0000     0.2426     0.9674     0.9511     0.0164
  5 H      0.8459     1.0000     0.1541     0.9667     0.9472     0.0195
  6 H      0.7772     1.0000     0.2228     0.9722     0.9518     0.0204
  7 H      0.8512     1.0000     0.1488     0.9729     0.9530     0.0199
  8 Pb    21.2641    22.0000     0.7359     2.3059     1.9268     0.3790
  9 Cl    17.5049    17.0000    -0.5049     1.0565     0.7942     0.2623
 10 Cl    17.5475    17.0000    -0.5475     0.9744     0.7087     0.2657
 11 Cl    17.4725    17.0000    -0.4725     1.1208     0.8597     0.2611

  Mayer bond orders larger than 0.1
B(  0-C ,  1-N ) :   0.8652 B(  0-C ,  5-H ) :   0.9541 B(  0-C ,  6-H ) :   0.9224 
B(  0-C ,  7-H ) :   0.9454 B(  1-N ,  2-H ) :   0.6652 B(  1-N ,  3-H ) :   0.8901 
B(  1-N ,  4-H ) :   0.9046 B(  2-H ,  9-Cl) :   0.2935 B(  8-Pb,  9-Cl) :   0.4668 
B(  8-Pb, 10-Cl) :   0.6160 B(  8-Pb, 11-Cl) :   0.8373 


                *******************************************
                * RELAXED MP2 DENSITY POPULATION ANALYSIS *
                *******************************************

------------------------------------------------------------------------------
                           ORCA POPULATION ANALYSIS
------------------------------------------------------------------------------
Input electron density              ... PbMACl3_mp2_md_8.orca.pmp2re
BaseName (.gbw .S,...)              ... PbMACl3_mp2_md_8.orca

                    ********************************
                    * MULLIKEN POPULATION ANALYSIS *
                    ********************************

-----------------------
MULLIKEN ATOMIC CHARGES
-----------------------
   0 C :   -0.344761
   1 N :   -0.270529
   2 H :    0.342399
   3 H :    0.267795
   4 H :    0.242485
   5 H :    0.159013
   6 H :    0.221101
   7 H :    0.151876
   8 Pb:    0.681234
   9 Cl:   -0.481182
  10 Cl:   -0.521563
  11 Cl:   -0.447868
Sum of atomic charges:   -0.0000000

--------------------------------
MULLIKEN REDUCED ORBITAL CHARGES
--------------------------------
  0 C s       :     3.273236  s :     3.273236
      pz      :     0.810439  p :     2.987490
      px      :     1.150785
      py      :     1.026266
      dz2     :     0.016079  d :     0.076821
      dxz     :     0.013891
      dyz     :     0.021673
      dx2y2   :     0.013841
      dxy     :     0.011337
      f0      :     0.001248  f :     0.007213
      f+1     :     0.000912
      f-1     :     0.001740
      f+2     :     0.001152
      f-2     :     0.000747
      f+3     :     0.000896
      f-3     :     0.000517
  1 N s       :     3.411318  s :     3.411318
      pz      :     1.212956  p :     3.798502
      px      :     1.283074
      py      :     1.302472
      dz2     :     0.016497  d :     0.057301
      dxz     :     0.006902
      dyz     :     0.010832
      dx2y2   :     0.014424
      dxy     :     0.008646
      f0      :     0.000449  f :     0.003409
      f+1     :     0.000431
      f-1     :     0.000947
      f+2     :     0.000382
      f-2     :     0.000336
      f+3     :     0.000575
      f-3     :     0.000290
  2 H s       :     0.596901  s :     0.596901
      pz      :     0.007110  p :     0.060699
      px      :     0.010491
      py      :     0.043098
  3 H s       :     0.696612  s :     0.696612
      pz      :     0.006570  p :     0.035593
      px      :     0.020806
      py      :     0.008218
  4 H s       :     0.715230  s :     0.715230
      pz      :     0.018947  p :     0.042285
      px      :     0.009427
      py      :     0.013910
  5 H s       :     0.816303  s :     0.816303
      pz      :     0.009882  p :     0.024684
      px      :     0.006609
      py      :     0.008194
  6 H s       :     0.751865  s :     0.751865
      pz      :     0.005189  p :     0.027034
      px      :     0.017103
      py      :     0.004743
  7 H s       :     0.826838  s :     0.826838
      pz      :     0.003503  p :     0.021286
      px      :     0.007241
      py      :     0.010542
  8 Pbs       :     3.956413  s :     3.956413
      pz      :     2.402553  p :     7.107334
      px      :     2.352129
      py      :     2.352652
      dz2     :     2.028898  d :    10.137602
      dxz     :     2.024759
      dyz     :     2.024841
      dx2y2   :     2.031353
      dxy     :     2.027751
      f0      :     0.012469  f :     0.117417
      f+1     :     0.014311
      f-1     :     0.013095
      f+2     :     0.017407
      f-2     :     0.013000
      f+3     :     0.021880
      f-3     :     0.025254
  9 Cls       :     5.948524  s :     5.948524
      pz      :     3.898681  p :    11.453065
      px      :     3.763564
      py      :     3.790820
      dz2     :     0.012986  d :     0.074810
      dxz     :     0.011097
      dyz     :     0.010858
      dx2y2   :     0.023578
      dxy     :     0.016292
      f0      :     0.000570  f :     0.004782
      f+1     :     0.000608
      f-1     :     0.000715
      f+2     :     0.000503
      f-2     :     0.000487
      f+3     :     0.000847
      f-3     :     0.001054
 10 Cls       :     5.949984  s :     5.949984
      pz      :     3.883352  p :    11.502556
      px      :     3.887904
      py      :     3.731301
      dz2     :     0.011715  d :     0.065105
      dxz     :     0.011517
      dyz     :     0.011911
      dx2y2   :     0.018176
      dxy     :     0.011786
      f0      :     0.000469  f :     0.003919
      f+1     :     0.000493
      f-1     :     0.000585
      f+2     :     0.000596
      f-2     :     0.000427
      f+3     :     0.000622
      f-3     :     0.000726
 11 Cls       :     5.942015  s :     5.942015
      pz      :     3.836553  p :    11.438299
      px      :     3.787631
      py      :     3.814115
      dz2     :     0.011579  d :     0.063313
      dxz     :     0.014594
      dyz     :     0.013172
      dx2y2   :     0.010817
      dxy     :     0.013151
      f0      :     0.000545  f :     0.004241
      f+1     :     0.000620
      f-1     :     0.000561
      f+2     :     0.000591
      f-2     :     0.000815
      f+3     :     0.000545
      f-3     :     0.000564


                     *******************************
                     * LOEWDIN POPULATION ANALYSIS *
                     *******************************

----------------------
LOEWDIN ATOMIC CHARGES
----------------------
   0 C :   -0.357679
   1 N :    0.089863
   2 H :    0.102388
   3 H :    0.179967
   4 H :    0.129667
   5 H :    0.118220
   6 H :    0.137546
   7 H :    0.127094
   8 Pb:   -0.209113
   9 Cl:   -0.093959
  10 Cl:   -0.148839
  11 Cl:   -0.075155

-------------------------------
LOEWDIN REDUCED ORBITAL CHARGES
-------------------------------
  0 C s       :     2.870926  s :     2.870926
      pz      :     0.929149  p :     3.137845
      px      :     1.141893
      py      :     1.066803
      dz2     :     0.070564  d :     0.312121
      dxz     :     0.054817
      dyz     :     0.092692
      dx2y2   :     0.047717
      dxy     :     0.046332
      f0      :     0.005305  f :     0.036786
      f+1     :     0.006225
      f-1     :     0.007877
      f+2     :     0.008012
      f-2     :     0.004555
      f+3     :     0.003175
      f-3     :     0.001638
  1 N s       :     2.984572  s :     2.984572
      pz      :     1.228718  p :     3.733852
      px      :     1.234233
      py      :     1.270901
      dz2     :     0.052551  d :     0.179396
      dxz     :     0.020487
      dyz     :     0.041001
      dx2y2   :     0.040992
      dxy     :     0.024366
      f0      :     0.001630  f :     0.012316
      f+1     :     0.002056
      f-1     :     0.002858
      f+2     :     0.001953
      f-2     :     0.001406
      f+3     :     0.001680
      f-3     :     0.000733
  2 H s       :     0.700033  s :     0.700033
      pz      :     0.016604  p :     0.197579
      px      :     0.031287
      py      :     0.149687
  3 H s       :     0.712197  s :     0.712197
      pz      :     0.020860  p :     0.107836
      px      :     0.062373
      py      :     0.024603
  4 H s       :     0.733049  s :     0.733049
      pz      :     0.056431  p :     0.137285
      px      :     0.031514
      py      :     0.049340
  5 H s       :     0.808227  s :     0.808227
      pz      :     0.027514  p :     0.073553
      px      :     0.020229
      py      :     0.025810
  6 H s       :     0.787819  s :     0.787819
      pz      :     0.012334  p :     0.074635
      px      :     0.049600
      py      :     0.012700
  7 H s       :     0.812971  s :     0.812971
      pz      :     0.009795  p :     0.059935
      px      :     0.021952
      py      :     0.028188
  8 Pbs       :     3.645742  s :     3.645742
      pz      :     2.517747  p :     7.554511
      px      :     2.500964
      py      :     2.535800
      dz2     :     2.131523  d :    10.712203
      dxz     :     2.114897
      dyz     :     2.107942
      dx2y2   :     2.201958
      dxy     :     2.155883
      f0      :     0.024677  f :     0.296657
      f+1     :     0.034923
      f-1     :     0.031712
      f+2     :     0.034583
      f-2     :     0.036328
      f+3     :     0.053341
      f-3     :     0.081093
  9 Cls       :     5.702537  s :     5.702537
      pz      :     3.846451  p :    11.272090
      px      :     3.731608
      py      :     3.694031
      dz2     :     0.021453  d :     0.111452
      dxz     :     0.011433
      dyz     :     0.010855
      dx2y2   :     0.045848
      dxy     :     0.021864
      f0      :     0.000592  f :     0.007880
      f+1     :     0.001136
      f-1     :     0.001155
      f+2     :     0.000622
      f-2     :     0.000493
      f+3     :     0.001420
      f-3     :     0.002463
 10 Cls       :     5.721659  s :     5.721659
      pz      :     3.819788  p :    11.326520
      px      :     3.807998
      py      :     3.698733
      dz2     :     0.018250  d :     0.094768
      dxz     :     0.015077
      dyz     :     0.012211
      dx2y2   :     0.036744
      dxy     :     0.012486
      f0      :     0.000502  f :     0.005892
      f+1     :     0.000642
      f-1     :     0.001144
      f+2     :     0.000723
      f-2     :     0.000451
      f+3     :     0.000760
      f-3     :     0.001671
 11 Cls       :     5.694870  s :     5.694870
      pz      :     3.781753  p :    11.282438
      px      :     3.739893
      py      :     3.760791
      dz2     :     0.011903  d :     0.091147
      dxz     :     0.026956
      dyz     :     0.022086
      dx2y2   :     0.010816
      dxy     :     0.019385
      f0      :     0.000765  f :     0.006700
      f+1     :     0.000973
      f-1     :     0.000821
      f+2     :     0.000679
      f-2     :     0.002025
      f+3     :     0.000647
      f-3     :     0.000792


                      *****************************
                      * MAYER POPULATION ANALYSIS *
                      *****************************

  NA   - Mulliken gross atomic population
  ZA   - Total nuclear charge
  QA   - Mulliken gross atomic charge
  VA   - Mayer's total valence
  BVA  - Mayer's bonded valence
  FA   - Mayer's free valence

  ATOM       NA         ZA         QA         VA         BVA        FA
  0 C      6.3448     6.0000    -0.3448     3.8128     3.6880     0.1248
  1 N      7.2705     7.0000    -0.2705     3.5164     3.3734     0.1430
  2 H      0.6576     1.0000     0.3424     0.9197     0.8982     0.0215
  3 H      0.7322     1.0000     0.2678     0.9400     0.9214     0.0186
  4 H      0.7575     1.0000     0.2425     0.9694     0.9532     0.0162
  5 H      0.8410     1.0000     0.1590     0.9657     0.9463     0.0194
  6 H      0.7789     1.0000     0.2211     0.9763     0.9559     0.0204
  7 H      0.8481     1.0000     0.1519     0.9720     0.9522     0.0198
  8 Pb    21.3188    22.0000     0.6812     2.3946     2.0221     0.3725
  9 Cl    17.4812    17.0000    -0.4812     1.1018     0.8409     0.2609
 10 Cl    17.5216    17.0000    -0.5216     1.0247     0.7607     0.2640
 11 Cl    17.4479    17.0000    -0.4479     1.1652     0.9059     0.2593

  Mayer bond orders larger than 0.1
B(  0-C ,  1-N ) :   0.8725 B(  0-C ,  5-H ) :   0.9502 B(  0-C ,  6-H ) :   0.9186 
B(  0-C ,  7-H ) :   0.9424 B(  1-N ,  2-H ) :   0.6605 B(  1-N ,  3-H ) :   0.8873 
B(  1-N ,  4-H ) :   0.9024 B(  2-H ,  9-Cl) :   0.2998 B(  8-Pb,  9-Cl) :   0.4880 
B(  8-Pb, 10-Cl) :   0.6454 B(  8-Pb, 11-Cl) :   0.8759 


-------
TIMINGS
-------

Total time                :  598.541 sec
Integral trafo            :    2.594 sec (  0.4%)
I/O of integrals          :    0.112 sec (  0.0%)
K(i,j) Operators          :    8.933 sec (  1.5%)
T(i,j) pair energies      :    1.280 sec (  0.2%)
V-calculation             :    0.011 sec (  0.0%)
V**(-1/2)                 :    0.027 sec (  0.0%)
Gamma(ia|P)               :    8.662 sec (  1.4%)
Gamma-Trafo               :    1.150 sec (  0.2%)
D(virtual)                :    3.840 sec (  0.6%)
D(internal)               :    3.717 sec (  0.6%)
W(virtual)                :    7.668 sec (  1.3%)
W(internal)               :   12.870 sec (  2.2%)
L(virtual)                :    5.648 sec (  0.9%)
L(internal)               :    0.192 sec (  0.0%)
G(D)                      :   16.567 sec (  2.8%)
G(Z)                      :   16.865 sec (  2.8%)
Z-Vector Solution         :  370.491 sec ( 61.9%)
Z-Vector Solution         :  370.491 sec ( 61.9%)
3-Index Derivative 
+ Separable RIJ part      :    4.893 sec (  0.8%)
2-Index Derivative 
+ Separable RIJ part      :    0.038 sec (  0.0%)
Separable Gradient (COSX) :  130.118 sec ( 21.7%)


---------------------------------------
MP2 TOTAL ENERGY:    -1669.496567124 Eh
---------------------------------------

The final MP2 gradient
  0:   0.00366221  -0.02351948  -0.02681572
  1:   0.01310757   0.03041813  -0.11308517
  2:  -0.03650656  -0.03274084   0.00695537
  3:  -0.01431895   0.00603680  -0.00121731
  4:   0.02288985  -0.06088590   0.09595788
  5:  -0.02814641   0.01392311  -0.01872712
  6:  -0.03242509  -0.00792812   0.03381651
  7:   0.01572717   0.02293934  -0.00049535
  8:   0.04379285   0.01631768   0.05808952
  9:  -0.03954017   0.04560624  -0.00694334
 10:   0.02710918  -0.03019323   0.00985552
 11:   0.02411245   0.02102687  -0.03680229

-----------------------------------
NORM OF THE MP2 GRADIENT:  0.221463
-----------------------------------

Entering the calculation of the dispersion correction...

Checking the input atom types...

Done


-------------------------------------------------------------------------------
                          DFT DISPERSION CORRECTION                            
                                                                               
                                DFTD3 V2.1  Rev 6                               
                          USING Becke-Johnson damping                          
-------------------------------------------------------------------------------
The B2PLYP functional is recognized
Active option DFTDOPT                   ...         4   

molecular C6(AA) [au] = 4789.634039 


            DFT-D V3
 parameters
 s6 scaling factor         :     0.6400 
 a1 scaling factor         :     0.3065 
 s8 scaling factor         :     0.9147 
 a2 scaling factor         :     5.0570 
 ad hoc parameters k1-k3   :    16.0000     1.3333    -4.0000 

 Edisp/kcal,au: -9.015524304710  -0.014367150961 
 E6   /kcal   :  -4.111113119 
 E8   /kcal   :  -4.904411185 
 % E8         :  54.399622470 

-------------------------   ----------------
Dispersion correction           -0.014367151
-------------------------   ----------------


-------------------------   --------------------
FINAL SINGLE POINT ENERGY     -1669.510934274736
-------------------------   --------------------


                            ***************************************
                            *     ORCA property calculations      *
                            ***************************************


  WARNING: The energy has been calculated at the MP2 level but the densities
           used in the property calculations are still SCF densities
           MP2 response densities have not been calculated 
           use %mp2 Density relaxed end
           or  %mp2 Density unrelaxed end

                                    ---------------------
                                    Active property flags
                                    ---------------------
   (+) Dipole Moment


------------------------------------------------------------------------------
                       ORCA ELECTRIC PROPERTIES CALCULATION
------------------------------------------------------------------------------

Dipole Moment Calculation                       ... on
Quadrupole Moment Calculation                   ... off
Polarizability Calculation                      ... off
GBWName                                         ... PbMACl3_mp2_md_8.orca.gbw
Electron density file                           ... PbMACl3_mp2_md_8.orca.scfp.tmp

-------------
DIPOLE MOMENT
-------------
                                X             Y             Z
Electronic contribution:    -55.20781     -50.69750     -38.23762
Nuclear contribution   :     57.73667      52.43149      38.06659
                        -----------------------------------------
Total Dipole Moment    :      2.52886       1.73399      -0.17103
                        -----------------------------------------
Magnitude (a.u.)       :      3.07101
Magnitude (Debye)      :      7.80589


                         *** MP2 UNRELAXED DENSITY ***

------------------------------------------------------------------------------
                       ORCA ELECTRIC PROPERTIES CALCULATION
------------------------------------------------------------------------------

Dipole Moment Calculation                       ... on
Quadrupole Moment Calculation                   ... off
Polarizability Calculation                      ... off
GBWName                                         ... PbMACl3_mp2_md_8.orca.gbw
Electron density file                           ... PbMACl3_mp2_md_8.orca.pmp2ur

-------------
DIPOLE MOMENT
-------------
                                X             Y             Z
Electronic contribution:    -55.21526     -50.70105     -38.23645
Nuclear contribution   :     57.73667      52.43149      38.06659
                        -----------------------------------------
Total Dipole Moment    :      2.52141       1.73044      -0.16986
                        -----------------------------------------
Magnitude (a.u.)       :      3.06281
Magnitude (Debye)      :      7.78504


                           *** MP2 RELAXED DENSITY ***

------------------------------------------------------------------------------
                       ORCA ELECTRIC PROPERTIES CALCULATION
------------------------------------------------------------------------------

Dipole Moment Calculation                       ... on
Quadrupole Moment Calculation                   ... off
Polarizability Calculation                      ... off
GBWName                                         ... PbMACl3_mp2_md_8.orca.gbw
Electron density file                           ... PbMACl3_mp2_md_8.orca.pmp2re

-------------
DIPOLE MOMENT
-------------
                                X             Y             Z
Electronic contribution:    -55.26276     -50.73883     -38.26619
Nuclear contribution   :     57.73667      52.43149      38.06659
                        -----------------------------------------
Total Dipole Moment    :      2.47391       1.69266      -0.19960
                        -----------------------------------------
Magnitude (a.u.)       :      3.00419
Magnitude (Debye)      :      7.63605


Timings for individual modules:

Sum of individual times         ...     1082.574 sec (=  18.043 min)
GTO integral calculation        ...        1.537 sec (=   0.026 min)   0.1 %
SCF iterations                  ...      481.319 sec (=   8.022 min)  44.5 %
MP2 module                      ...      599.718 sec (=   9.995 min)  55.4 %
                             ****ORCA TERMINATED NORMALLY****
TOTAL RUN TIME: 0 days 0 hours 18 minutes 3 seconds 962 msec
