
                                 *****************
                                 * O   R   C   A *
                                 *****************

           --- An Ab Initio, DFT and Semiempirical electronic structure package ---

                  #######################################################
                  #                        -***-                        #
                  #  Department of molecular theory and spectroscopy    #
                  #              Directorship: Frank Neese              #
                  # Max Planck Institute for Chemical Energy Conversion #
                  #                  D-45470 Muelheim/Ruhr              #
                  #                       Germany                       #
                  #                                                     #
                  #                  All rights reserved                #
                  #                        -***-                        #
                  #######################################################


                         Program Version 3.0.3 - RELEASE   -


 With contributions from (in alphabetic order):
   Ute Becker             : Parallelization
   Dmytro Bykov           : SCF Hessian
   Dmitry Ganyushin       : Spin-Orbit,Spin-Spin,Magnetic field MRCI
   Andreas Hansen         : Spin unrestricted coupled pair/coupled cluster methods
   Dimitrios Liakos       : Extrapolation schemes; parallel MDCI
   Robert Izsak           : Overlap fitted RIJCOSX, COSX-SCS-MP3
   Christian Kollmar      : KDIIS, OOCD, Brueckner-CCSD(T), CCSD density
   Simone Kossmann        : Meta GGA functionals, TD-DFT gradient, OOMP2, MP2 Hessian
   Taras Petrenko         : DFT Hessian,TD-DFT gradient, ASA and ECA modules, normal mode analysis, Resonance Raman, ABS, FL, XAS/XES, NRVS
   Christoph Reimann      : Effective Core Potentials
   Michael Roemelt        : Restricted open shell CIS
   Christoph Riplinger    : Improved optimizer, TS searches, QM/MM, DLPNO-CCSD
   Barbara Sandhoefer     : DKH picture change effects
   Igor Schapiro          : Molecular dynamics
   Kantharuban Sivalingam : CASSCF convergence, NEVPT2
   Boris Wezisla          : Elementary symmetry handling
   Frank Wennmohs         : Technical directorship


 We gratefully acknowledge several colleagues who have allowed us to
 interface, adapt or use parts of their codes:
   Stefan Grimme, W. Hujo, H. Kruse, T. Risthaus : VdW corrections, initial TS optimization,
                                                   DFT functionals, gCP
   Ed Valeev                                     : LibInt (2-el integral package), F12 methods
   Garnet Chan, S. Sharma, R. Olivares           : DMRG
   Ulf Ekstrom                                   : XCFun DFT Library
   Mihaly Kallay                                 : mrcc  (arbitrary order and MRCC methods)
   Andreas Klamt, Michael Diedenhofen            : otool_cosmo (COSMO solvation model)
   Frank Weinhold                                : gennbo (NPA and NBO analysis)
   Christopher J. Cramer and Donald G. Truhlar   : smd solvation model


 Your calculation uses the libint2 library for the computation of 2-el integrals
 For citations please refer to: http://libint.valeyev.net

 This ORCA versions uses:
   CBLAS   interface :  Fast vector & matrix operations
   LAPACKE interface :  Fast linear algebra routines
   SCALAPACK package :  Parallel linear algebra routines


Your calculation utilizes the basis: Ahlrichs-TZV
Cite in your paper:
H - Kr: A. Schaefer, H. Horn and R. Ahlrichs, J. Chem. Phys. 97, 2571 (1992).

The def2-TZV basis will be loaded
Cite in your paper:
 	F. Weigend, R. Ahlrichs, Phys. Chem. Chem. Phys. 2005, 7, 3297.

Your calculation utilizes the atom-pairwise dispersion correction
with the Becke-Johnson damping scheme (D3BJ)
Cite in your paper:
S.Grimme, S.Ehrlich, L.Goerigk, J Comput Chem, (2011), 32, 1456–1465 
S.Grimme, J.Antony, S.Ehrlich and H.Krieg, J.Chem.Phys., 132, (2010), 154104 
   

================================================================================
                                        WARNINGS
                       Please study these warnings very carefully!
================================================================================

WARNING: The RI method has been chosen with no auxiliary basis (AUX or GTOAUX in BASIS block)
        Standard TZV/J expansion basis used (GTOAUX=TZV_J)

Now building the actual basis set
cite the ECPs for Pb [SD(60,MDF)] as follows:
  B. Metz, H. Stoll, M. Dolg, J. Chem. Phys. 113, 2563 (2000).

ECP parameters for Pb [SD(60,MDF)] have been obtained from:
  pseudopotential library of the Stuttgart/Cologne group
  http://www.theochem.uni-stuttgart.de/pseudopotentials/

cite the ECP basis sets for Pb [DEF2-TZVP] as follows:
  F. Weigend, R. Ahlrichs; Phys. Chem. Chem. Phys. 7, 3297(2005).

ECP basis sets for Pb [DEF2-TZVP] have been obtained from:
  Turbomole basis set library
  ftp://ftp.chemie.uni-karlsruhe.de/pub/basen/



INFO   : the flag for use of LIBINT has been found!

================================================================================
                                       INPUT FILE
================================================================================
NAME = PbMACl3_mp2_md2_5.orca
|  1> ! RIJCOSX RI-B2PLYP D3BJ def2-TZVP ECP{def2-TZVP} TIGHTSCF Grid5 FinalGrid6 SlowConv MORead
|  2> %method
|  3>  RunTyp Gradient
|  4>  end
|  5> %maxcore 1000
|  6> %moinp "previous.gbw"
|  7> *xyz 0 1
|  8> C -0.394281 0.276013 -0.426662 
|  9> N -1.165380 -0.685592 -1.253010 
| 10> H 0.248796 -0.278576 0.260517 
| 11> H -1.090820 0.897444 0.140826 
| 12> H 0.215705 0.904875 -1.079130 
| 13> H -1.783150 -1.324970 -0.698370 
| 14> H -0.582260 -1.326300 -1.835140 
| 15> H -1.813140 -0.240924 -1.938260 
| 16> Pb -2.753470 -3.989520 -2.720960 
| 17> Cl -1.438120 -3.254580 -4.806830 
| 18> Cl -2.725660 1.202960 -2.902560 
| 19> Cl -4.769080 -3.387440 -1.239150 
| 20> *
| 21> 
| 22>                          ****END OF INPUT****
================================================================================

                     *******************************
                     * Energy+Gradient Calculation *
                     *******************************

---------------------------------
CARTESIAN COORDINATES (ANGSTROEM)
---------------------------------
  C     -0.394281    0.276013   -0.426662
  N     -1.165380   -0.685592   -1.253010
  H      0.248796   -0.278576    0.260517
  H     -1.090820    0.897444    0.140826
  H      0.215705    0.904875   -1.079130
  H     -1.783150   -1.324970   -0.698370
  H     -0.582260   -1.326300   -1.835140
  H     -1.813140   -0.240924   -1.938260
  Pb    -2.753470   -3.989520   -2.720960
  Cl    -1.438120   -3.254580   -4.806830
  Cl    -2.725660    1.202960   -2.902560
  Cl    -4.769080   -3.387440   -1.239150

----------------------------
CARTESIAN COORDINATES (A.U.)
----------------------------
  NO LB      ZA    FRAG    MASS        X           Y           Z
   0 C     6.0000    0    12.011         -0.745083109808605          0.521588979402006         -0.806274331751109
   1 N     7.0000    0    14.007         -2.202249041949148         -1.295581119607339         -2.367845743064668
   2 H     1.0000    0     1.008          0.470156303215072         -0.526432347483247          0.492305783230763
   3 H     1.0000    0     1.008         -2.061351061403979          1.695923380530824          0.266122572535594
   4 H     1.0000    0     1.008          0.407623375717484          1.709965935431992         -2.039260162898440
   5 H     1.0000    0     1.008         -3.369665155701680         -2.503830435661641         -1.319728040146585
   6 H     1.0000    0     1.008         -1.100311938736988         -2.506343771419756         -3.467912017404246
   7 H     1.0000    0     1.008         -3.426338042457978         -0.455280379088844         -3.662780576334205
   8 Pb   22.0000*   0   207.200  -5.203304217968149  -7.539100205801512  -5.141869221354368
   9 Cl   17.0000    0    35.453         -2.717652947714830         -6.150264880937427         -9.083592272316690
  10 Cl   17.0000    0    35.453         -5.150750934183799          2.273264950061909         -5.485043487274468
  11 Cl   17.0000    0    35.453         -9.012255110761162         -6.401333895090204         -2.341654138848519
* core charge reduced due to ECP

--------------------------------
INTERNAL COORDINATES (ANGSTROEM)
--------------------------------
 C      0   0   0   0.000000     0.000     0.000
 N      1   0   0   1.483957     0.000     0.000
 H      1   2   0   1.092397   109.099     0.000
 H      1   2   3   1.092422   109.061   240.173
 H      1   2   3   1.092367   109.305   120.114
 H      2   1   3   1.047888   114.015    60.210
 H      2   1   3   1.043749   114.711   299.789
 H      2   1   3   1.042540   114.361   179.708
 Pb     6   2   1   3.483133   108.883   195.682
 Cl     9   6   2   2.573157    96.305     1.243
 Cl     8   2   1   1.961471   157.845     0.254
 Cl     9   6   2   2.573120    72.832   217.273

---------------------------
INTERNAL COORDINATES (A.U.)
---------------------------
 C      0   0   0   0.000000     0.000     0.000
 N      1   0   0   2.804273     0.000     0.000
 H      1   2   0   2.064332   109.099     0.000
 H      1   2   3   2.064378   109.061   240.173
 H      1   2   3   2.064274   109.305   120.114
 H      2   1   3   1.980222   114.015    60.210
 H      2   1   3   1.972399   114.711   299.789
 H      2   1   3   1.970116   114.361   179.708
 Pb     6   2   1   6.582168   108.883   195.682
 Cl     9   6   2   4.862562    96.305     1.243
 Cl     8   2   1   3.706643   157.845     0.254
 Cl     9   6   2   4.862492    72.832   217.273

---------------------
BASIS SET INFORMATION
---------------------
There are 5 groups of distinct atoms

 Group   1 Type C   : 11s6p2d1f contracted to 5s3p2d1f pattern {62111/411/11/1}
 Group   2 Type N   : 11s6p2d1f contracted to 5s3p2d1f pattern {62111/411/11/1}
 Group   3 Type H   : 5s1p contracted to 3s1p pattern {311/1}
 Group   4 Type Pb  : 10s9p8d2f contracted to 6s5p3d2f pattern {421111/33111/611/11}
 Group   5 Type Cl  : 14s9p3d1f contracted to 5s5p2d1f pattern {73211/51111/21/1}

Atom   0C    basis set group =>   1
Atom   1N    basis set group =>   2
Atom   2H    basis set group =>   3
Atom   3H    basis set group =>   3
Atom   4H    basis set group =>   3
Atom   5H    basis set group =>   3
Atom   6H    basis set group =>   3
Atom   7H    basis set group =>   3
Atom   8Pb   basis set group =>   4
Atom   9Cl   basis set group =>   5
Atom  10Cl   basis set group =>   5
Atom  11Cl   basis set group =>   5
-------------------------------
AUXILIARY BASIS SET INFORMATION
-------------------------------
There are 5 groups of distinct atoms

 Group   1 Type C   : 12s5p4d2f1g contracted to 6s4p3d1f1g pattern {711111/2111/211/2/1}
 Group   2 Type N   : 12s5p4d2f1g contracted to 6s4p3d1f1g pattern {711111/2111/211/2/1}
 Group   3 Type H   : 5s2p1d contracted to 3s1p1d pattern {311/2/1}
 Group   4 Type Pb  : 31s12p8d6f3g contracted to 31s12p8d6f3g pattern {1111111111111111111111111111111/111111111111/11111111/111111/111}
 Group   5 Type Cl  : 14s5p5d2f1g contracted to 8s4p3d1f1g pattern {71111111/2111/311/2/1}

Atom   0C    basis set group =>   1
Atom   1N    basis set group =>   2
Atom   2H    basis set group =>   3
Atom   3H    basis set group =>   3
Atom   4H    basis set group =>   3
Atom   5H    basis set group =>   3
Atom   6H    basis set group =>   3
Atom   7H    basis set group =>   3
Atom   8Pb   basis set group =>   4
Atom   9Cl   basis set group =>   5
Atom  10Cl   basis set group =>   5
Atom  11Cl   basis set group =>   5

-------------------------
ECP PARAMETER INFORMATION
-------------------------

 Group 1, Type Pb ECP SD(60,MDF) (replacing 60 core electrons, lmax=5)

Atom   8Pb   ECP group =>   1


------------------------------------------------------------------------------
                           ORCA GTO INTEGRAL CALCULATION
                           -- RI-GTO INTEGRALS CHOSEN --
------------------------------------------------------------------------------

                         BASIS SET STATISTICS AND STARTUP INFO

Gaussian basis set:
 # of primitive gaussian shells          ...  186
 # of primitive gaussian functions       ...  420
 # of contracted shells                  ...  101
 # of contracted basis functions         ...  259
 Highest angular momentum                ...    3
 Maximum contraction depth               ...    7
Auxiliary gaussian basis set:
 # of primitive gaussian shells          ...  237
 # of primitive gaussian functions       ...  643
 # of contracted shells                  ...  171
 # of contracted aux-basis functions     ...  493
 Highest angular momentum                ...    4
 Maximum contraction depth               ...    7
Ratio of auxiliary to basis functions    ...  1.90
Integral package used                  ... LIBINT
 One Electron integrals                  
   ECP integrals                         ... done
 Ordering auxiliary basis shells         ... done
 Integral threshhold             Thresh  ...  2.500e-11
 Primitive cut-off               TCut    ...  2.500e-12
 Pre-screening matrix                    ... done
 Shell pair data                         ... 
 Ordering of the shell pairs             ... done (   0.001 sec) 4040 of 5151 pairs
 Determination of significant pairs      ... done (   0.000 sec)
 Creation of shell pair data             ... done (   0.001 sec)
 Storage of shell pair data              ... done (   0.001 sec)
 Shell pair data done in (   0.003 sec)
 Computing two index integrals           ... done
 Cholesky decomposition of the V-matrix  ... done


Timings:
 Total evaluation time                   ...   0.634 sec (  0.011 min)
 One electron matrix time                ...   0.290 sec (  0.005 min) = 45.7%
 Schwartz matrix evaluation time         ...   0.213 sec (  0.004 min) = 33.6%
 Two index repulsion integral time       ...   0.008 sec (  0.000 min) =  1.3%
 Cholesky decomposition of V             ...   0.093 sec (  0.002 min) = 14.7%
 Three index repulsion integral time     ...   0.000 sec (  0.000 min) =  0.0%

-------------------------------------------------------------------------------
                                 ORCA SCF
-------------------------------------------------------------------------------

------------
SCF SETTINGS
------------
Hamiltonian:
 Density Functional     Method          .... DFT(GTOs)
 Exchange Functional    Exchange        .... B88
   X-Alpha parameter    XAlpha          ....  0.666667
   Becke's b parameter  XBeta           ....  0.004200
 Correlation Functional Correlation     .... LYP
 LDA part of GGA corr.  LDAOpt          .... VWN-3
 Gradients option       PostSCFGGA      .... off
 Hybrid DFT is turned on
   Fraction HF Exchange ScalHFX         ....  0.530000
   Scaling of DF-GGA-X  ScalDFX         ....  0.470000
   Scaling of DF-GGA-C  ScalDFC         ....  0.730000
   Scaling of DF-LDA-C  ScalLDAC        ....  0.730000
   Perturbative correction              ....  0.270000
 RI-approximation to the Coulomb term is turned on
   Number of auxiliary basis functions  .... 493
   RIJ-COSX (HFX calculated with COS-X)).... on


General Settings:
 Integral files         IntName         .... PbMACl3_mp2_md2_5.orca
 Hartree-Fock type      HFTyp           .... RHF
 Total Charge           Charge          ....    0
 Multiplicity           Mult            ....    1
 Number of Electrons    NEL             ....   92
 Basis Dimension        Dim             ....  259
 Nuclear Repulsion      ENuc            ....    501.9718637439 Eh

Convergence Acceleration:
 DIIS                   CNVDIIS         .... on
   Start iteration      DIISMaxIt       ....     0
   Startup error        DIISStart       ....  0.200000
   # of expansion vecs  DIISMaxEq       ....     5
   Bias factor          DIISBfac        ....   1.050
   Max. coefficient     DIISMaxC        ....  10.000
 Newton-Raphson         CNVNR           .... off
 SOSCF                  CNVSOSCF        .... on
   Start iteration      SOSCFMaxIt      ....   150
   Startup grad/error   SOSCFStart      ....  0.001000
 Level Shifting         CNVShift        .... on
   Level shift para.    LevelShift      ....    0.2500
   Turn off err/grad.   ShiftErr        ....    0.0000
 Zerner damping         CNVZerner       .... off
 Static damping         CNVDamp         .... on
   Fraction old density DampFac         ....    0.8500
   Max. Damping (<1)    DampMax         ....    0.9800
   Min. Damping (>=0)   DampMin         ....    0.0000
   Turn off err/grad.   DampErr         ....    0.0300
 Fernandez-Rico         CNVRico         .... off

SCF Procedure:
 Maximum # iterations   MaxIter         ....   125
 SCF integral mode      SCFMode         .... Direct
   Integral package                     .... LIBINT
 Reset frequeny         DirectResetFreq ....    20
 Integral Threshold     Thresh          ....  2.500e-11 Eh
 Primitive CutOff       TCut            ....  2.500e-12 Eh

Convergence Tolerance:
 Convergence Check Mode ConvCheckMode   .... Total+1el-Energy
 Energy Change          TolE            ....  1.000e-08 Eh
 1-El. energy change                    ....  1.000e-05 Eh
 Orbital Gradient       TolG            ....  1.000e-05
 Orbital Rotation angle TolX            ....  1.000e-05
 DIIS Error             TolErr          ....  5.000e-07


Diagonalization of the overlap matrix:
Smallest eigenvalue                        ... 1.105e-03
Time for diagonalization                   ...    0.141 sec
Threshold for overlap eigenvalues          ... 1.000e-08
Number of eigenvalues below threshold      ... 0
Time for construction of square roots      ...    0.005 sec
Total time needed                          ...    0.147 sec

---------------------
INITIAL GUESS: MOREAD
---------------------
Guess MOs are being read from file: previous.gbw
Input geometry compatible with but different from current geometry
Input basis set matches current basis set (good)
MOs were renormalized
MOs were reorthogonalized (Schmidt)
                      ------------------
                      INITIAL GUESS DONE (   0.1 sec)
                      ------------------
-------------------
DFT GRID GENERATION
-------------------

General Integration Accuracy     IntAcc      ...  5.010
Radial Grid Type                 RadialGrid  ... Gauss-Chebyshev
Angular Grid (max. acc.)         AngularGrid ... Lebedev-434
Angular grid pruning method      GridPruning ... 3 (G Style)
Weight generation scheme         WeightScheme... Becke
Basis function cutoff            BFCut       ...    1.0000e-11
Integration weight cutoff        WCut        ...    1.0000e-14
Grids for H and He will be reduced by one unit

# of grid points (after initial pruning)     ... 115882 (   0.0 sec)
# of grid points (after weights+screening)   ... 109843 (   0.2 sec)
nearest neighbour list constructed           ...    0.0 sec
Grid point re-assignment to atoms done       ...    0.0 sec
Grid point division into batches done        ...    1.0 sec
Reduced shell lists constructed in    3.2 sec

Total number of grid points                  ...   109843
Total number of batches                      ...     1722
Average number of points per batch           ...       63
Average number of grid points per atom       ...     9154
Average number of shells per batch           ...    48.73 (48.25%)
Average number of basis functions per batch  ...   124.49 (48.06%)
Average number of large shells per batch     ...    36.05 (73.98%)
Average number of large basis fcns per batch ...    91.51 (73.51%)
Maximum spatial batch extension              ...  35.37, 34.71, 35.77 au
Average spatial batch extension              ...   2.51,  2.47,  2.50 au

Time for grid setup =    3.426 sec

--------------------
COSX GRID GENERATION
--------------------

General Integration Accuracy     IntAcc      ...  3.340
Radial Grid Type                 RadialGrid  ... Gauss-Chebyshev
Angular Grid (max. acc.)         AngularGrid ... Lebedev-50
Angular grid pruning method      GridPruning ... 3 (G Style)
Weight generation scheme         WeightScheme... Becke
Basis function cutoff            BFCut       ...    1.0000e-11
Integration weight cutoff        WCut        ...    1.0000e-14
Grids for H and He will be reduced by one unit

# of grid points (after initial pruning)     ...   6578 (   0.0 sec)
# of grid points (after weights+screening)   ...   6249 (   0.0 sec)
nearest neighbour list constructed           ...    0.0 sec
Grid point re-assignment to atoms done       ...    0.0 sec
Grid point division into batches done        ...    0.0 sec
Reduced shell lists constructed in    0.1 sec

Total number of grid points                  ...     6249
Total number of batches                      ...      104
Average number of points per batch           ...       60
Average number of grid points per atom       ...      521
Average number of shells per batch           ...    59.53 (58.94%)
Average number of basis functions per batch  ...   155.74 (60.13%)
Average number of large shells per batch     ...    44.96 (75.52%)
Average number of large basis fcns per batch ...   115.91 (74.43%)
Maximum spatial batch extension              ...  44.74, 33.79, 32.17 au
Average spatial batch extension              ...   7.03,  6.75,  6.80 au

Overlap Fitting                  UseSFitting ... on
Constructing numerical overlap ... done (      0.1 sec)
Inverting numerical overlap    ... done (      0.0 sec)
Obtaining analytic overlap     ... done (      0.0 sec)
Final contraction and storage  ... done (      0.0 sec)


General Integration Accuracy     IntAcc      ...  3.670
Radial Grid Type                 RadialGrid  ... Gauss-Chebyshev
Angular Grid (max. acc.)         AngularGrid ... Lebedev-50
Angular grid pruning method      GridPruning ... 3 (G Style)
Weight generation scheme         WeightScheme... Becke
Basis function cutoff            BFCut       ...    1.0000e-11
Integration weight cutoff        WCut        ...    1.0000e-14
Grids for H and He will be reduced by one unit

# of grid points (after initial pruning)     ...   8124 (   0.0 sec)
# of grid points (after weights+screening)   ...   7692 (   0.0 sec)
nearest neighbour list constructed           ...    0.0 sec
Grid point re-assignment to atoms done       ...    0.0 sec
Grid point division into batches done        ...    0.0 sec
Reduced shell lists constructed in    0.2 sec

Total number of grid points                  ...     7692
Total number of batches                      ...      124
Average number of points per batch           ...       62
Average number of grid points per atom       ...      641
Average number of shells per batch           ...    59.07 (58.49%)
Average number of basis functions per batch  ...   154.00 (59.46%)
Average number of large shells per batch     ...    44.67 (75.62%)
Average number of large basis fcns per batch ...   114.58 (74.40%)
Maximum spatial batch extension              ...  46.50, 33.06, 33.94 au
Average spatial batch extension              ...   6.55,  6.11,  6.08 au

Overlap Fitting                  UseSFitting ... on
Constructing numerical overlap ... done (      0.1 sec)
Inverting numerical overlap    ... done (      0.0 sec)
Obtaining analytic overlap     ... done (      0.0 sec)
Final contraction and storage  ... done (      0.0 sec)


General Integration Accuracy     IntAcc      ...  4.010
Radial Grid Type                 RadialGrid  ... Gauss-Chebyshev
Angular Grid (max. acc.)         AngularGrid ... Lebedev-110
Angular grid pruning method      GridPruning ... 3 (G Style)
Weight generation scheme         WeightScheme... Becke
Basis function cutoff            BFCut       ...    1.0000e-11
Integration weight cutoff        WCut        ...    1.0000e-14
Grids for H and He will be reduced by one unit

# of grid points (after initial pruning)     ...  15170 (   0.0 sec)
# of grid points (after weights+screening)   ...  14503 (   0.0 sec)
nearest neighbour list constructed           ...    0.0 sec
Grid point re-assignment to atoms done       ...    0.0 sec
Grid point division into batches done        ...    0.0 sec
Reduced shell lists constructed in    0.3 sec

Total number of grid points                  ...    14503
Total number of batches                      ...      232
Average number of points per batch           ...       62
Average number of grid points per atom       ...     1209
Average number of shells per batch           ...    55.36 (54.81%)
Average number of basis functions per batch  ...   143.91 (55.57%)
Average number of large shells per batch     ...    41.47 (74.92%)
Average number of large basis fcns per batch ...   106.43 (73.96%)
Maximum spatial batch extension              ...  30.75, 29.91, 32.53 au
Average spatial batch extension              ...   5.36,  5.23,  5.09 au

Overlap Fitting                  UseSFitting ... on
Constructing numerical overlap ... done (      0.2 sec)
Inverting numerical overlap    ... done (      0.0 sec)
Obtaining analytic overlap     ... done (      0.0 sec)
Final contraction and storage  ... done (      0.0 sec)

Time for X-Grid setup             =    1.259 sec
--------------
SCF ITERATIONS
--------------
ITER       Energy         Delta-E        Max-DP      RMS-DP      [F,P]     Damp
               ***  Starting incremental Fock matrix formation  ***
  0  -1668.5795615266   0.000000000000 0.03107074  0.00051842  0.5869012 0.8500
  1  -1668.6224972401  -0.042935713455 0.02754060  0.00061005  0.4994441 0.8500
                               ***Turning on DIIS***
  2  -1668.6636757893  -0.041178549151 0.02362865  0.00058662  0.4248112 0.8500
  3  -1668.6996532842  -0.035977494926 0.02203905  0.00052791  0.3613132 0.8500
  4  -1668.7311341993  -0.031480915078 0.02044138  0.00048629  0.3072374 0.8500
  5  -1668.7585858640  -0.027451664793 0.01889137  0.00045084  0.2612056 0.8500
  6  -1668.7828366371  -0.024250773011 0.01726523  0.00041315  0.2220557 0.8500
  7  -1668.8043358232  -0.021499186172 0.01566847  0.00037597  0.1887706 0.8500
  8  -1668.8233630233  -0.019027200104 0.01400018  0.00033734  0.1604767 0.8500
  9  -1668.8400558976  -0.016692874292 0.01233113  0.00029880  0.1364233 0.8500
 10  -1668.8546373712  -0.014581473582 0.01077251  0.00026284  0.1159737 0.8500
 11  -1668.8673523338  -0.012714962588 0.00937765  0.00023050  0.0985883 0.8500
 12  -1668.8784231575  -0.011070823736 0.00814850  0.00020179  0.0838084 0.8500
 13  -1668.8880435060  -0.009620348416 0.00706364  0.00017629  0.0712440 0.8500
 14  -1668.8963836232  -0.008340117285 0.00610586  0.00015362  0.0605629 0.8500
 15  -1668.9035976421  -0.007214018824 0.00526545  0.00013359  0.0514829 0.8500
 16  -1668.9098256103  -0.006227968247 0.00453399  0.00011600  0.0437641 0.8500
 17  -1668.9151933482  -0.005367737904 0.00390098  0.00010064  0.0372025 0.8500
 18  -1668.9198127142  -0.004619366023 0.00335436  0.00008725  0.0316245 0.8500
 19  -1668.9237825310  -0.003969816730 0.01921788  0.00050397  0.0268828 0.0000
               *** Restarting incremental Fock matrix formation ***
                                   *** Resetting DIIS ***
                      *** Initiating the SOSCF procedure ***
                           *** Shutting down DIIS ***
                      *** Re-Reading the Fockian *** 
                      *** Removing any level shift *** 
ITER      Energy       Delta-E        Grad      Rot      Max-DP    RMS-DP
 20  -1668.94961637  -0.0258338355  0.000766  0.000766  0.001233  0.000029
               *** Restarting incremental Fock matrix formation ***
 21  -1668.94714404   0.0024723255  0.000638  0.003026  0.001400  0.000037
 22  -1668.94715359  -0.0000095521  0.000252  0.002607  0.001159  0.000026
 23  -1668.94715559  -0.0000019961  0.000226  0.000207  0.000389  0.000009
 24  -1668.94715661  -0.0000010169  0.000031  0.000118  0.000089  0.000002
 25  -1668.94715671  -0.0000001039  0.000010  0.000043  0.000032  0.000001
 26  -1668.94715671   0.0000000013  0.000006  0.000037  0.000022  0.000000
                  ***Gradient check signals convergence***
              ***Rediagonalizing the Fockian in SOSCF/NRSCF***

               *****************************************************
               *                     SUCCESS                       *
               *           SCF CONVERGED AFTER  27 CYCLES          *
               *****************************************************

Old exchange energy                            =    -59.144041294 Eh
New exchange energy                            =    -59.146194354 Eh
Exchange energy change after final integration =     -0.002153060 Eh
Total energy after final integration           =  -1668.949309775 Eh
Final COS-X integration done in                =    16.324 sec

----------------
TOTAL SCF ENERGY
----------------

Total Energy       :        -1668.94930978 Eh          -45414.41954 eV

Components:
Nuclear Repulsion  :          501.97186374 Eh           13659.34884 eV
Electronic Energy  :        -2170.92117352 Eh          -59073.76838 eV

One Electron Energy:        -3373.88208771 Eh          -91807.99904 eV
Two Electron Energy:         1202.96091419 Eh           32734.23065 eV

Virial components:
Potential Energy   :        -3206.30262586 Eh          -87247.93005 eV
Kinetic Energy     :         1537.35331608 Eh           41833.51051 eV
Virial Ratio       :            2.08559906


DFT components:
N(Alpha)           :       46.000011198951 electrons
N(Beta)            :       46.000011198951 electrons
N(Total)           :       92.000022397901 electrons
E(X)               :      -52.538114639948 Eh       
E(C)               :       -2.592745895315 Eh       
E(XC)              :      -55.130860535263 Eh       

---------------
SCF CONVERGENCE
---------------

  Last Energy change         ...   -6.8287e-09  Tolerance :   1.0000e-08
  Last MAX-Density change    ...    3.8192e-13  Tolerance :   1.0000e-07
  Last RMS-Density change    ...    2.4962e-15  Tolerance :   5.0000e-09
  Last Orbital Gradient      ...    1.4117e-06  Tolerance :   1.0000e-05
  Last Orbital Rotation      ...    3.6669e-06  Tolerance :   1.0000e-05

             **** THE GBW FILE WAS UPDATED (PbMACl3_mp2_md2_5.orca.gbw) ****
             **** DENSITY FILE WAS UPDATED (PbMACl3_mp2_md2_5.orca.scfp.tmp) ****
             **** ENERGY FILE WAS UPDATED (PbMACl3_mp2_md2_5.orca.en.tmp) ****
----------------
ORBITAL ENERGIES
----------------

  NO   OCC          E(Eh)            E(eV) 
   0   2.0000    -102.883849     -2799.6119 
   1   2.0000    -102.882932     -2799.5869 
   2   2.0000    -102.756085     -2796.1352 
   3   2.0000     -14.989150      -407.8755 
   4   2.0000     -10.714121      -291.5461 
   5   2.0000      -9.889837      -269.1161 
   6   2.0000      -9.888874      -269.0899 
   7   2.0000      -9.762156      -265.6418 
   8   2.0000      -7.526779      -204.8141 
   9   2.0000      -7.525806      -204.7876 
  10   2.0000      -7.525374      -204.7758 
  11   2.0000      -7.524785      -204.7598 
  12   2.0000      -7.524414      -204.7497 
  13   2.0000      -7.523825      -204.7337 
  14   2.0000      -7.398954      -201.3358 
  15   2.0000      -7.397881      -201.3066 
  16   2.0000      -7.397844      -201.3056 
  17   2.0000      -5.874109      -159.8426 
  18   2.0000      -3.649063       -99.2960 
  19   2.0000      -3.645320       -99.1942 
  20   2.0000      -3.639335       -99.0313 
  21   2.0000      -1.158573       -31.5264 
  22   2.0000      -1.039559       -28.2878 
  23   2.0000      -1.037241       -28.2248 
  24   2.0000      -1.033032       -28.1102 
  25   2.0000      -1.031514       -28.0689 
  26   2.0000      -1.030640       -28.0451 
  27   2.0000      -0.895419       -24.3656 
  28   2.0000      -0.893349       -24.3093 
  29   2.0000      -0.869240       -23.6532 
  30   2.0000      -0.775924       -21.1140 
  31   2.0000      -0.688779       -18.7426 
  32   2.0000      -0.672826       -18.3085 
  33   2.0000      -0.612807       -16.6753 
  34   2.0000      -0.601516       -16.3681 
  35   2.0000      -0.523723       -14.2512 
  36   2.0000      -0.523150       -14.2356 
  37   2.0000      -0.422302       -11.4914 
  38   2.0000      -0.380745       -10.3606 
  39   2.0000      -0.379046       -10.3144 
  40   2.0000      -0.369208       -10.0467 
  41   2.0000      -0.367605       -10.0030 
  42   2.0000      -0.329497        -8.9661 
  43   2.0000      -0.269084        -7.3222 
  44   2.0000      -0.256304        -6.9744 
  45   2.0000      -0.255703        -6.9580 
  46   0.0000      -0.118725        -3.2307 
  47   0.0000      -0.087074        -2.3694 
  48   0.0000       0.008072         0.2196 
  49   0.0000       0.008650         0.2354 
  50   0.0000       0.061782         1.6812 
  51   0.0000       0.064669         1.7597 
  52   0.0000       0.087113         2.3705 
  53   0.0000       0.099418         2.7053 
  54   0.0000       0.110827         3.0158 
  55   0.0000       0.127953         3.4818 
  56   0.0000       0.130368         3.5475 
  57   0.0000       0.136383         3.7112 
  58   0.0000       0.158902         4.3239 
  59   0.0000       0.179724         4.8905 
  60   0.0000       0.187761         5.1092 
  61   0.0000       0.196471         5.3462 
  62   0.0000       0.229870         6.2551 
  63   0.0000       0.244681         6.6581 
  64   0.0000       0.253658         6.9024 
  65   0.0000       0.256945         6.9918 
  66   0.0000       0.280014         7.6196 
  67   0.0000       0.291093         7.9210 
  68   0.0000       0.304774         8.2933 
  69   0.0000       0.333504         9.0751 
  70   0.0000       0.391062        10.6413 
  71   0.0000       0.393549        10.7090 
  72   0.0000       0.404600        11.0097 
  73   0.0000       0.422004        11.4833 
  74   0.0000       0.427572        11.6348 
  75   0.0000       0.437536        11.9059 
  76   0.0000       0.440191        11.9782 
  77   0.0000       0.449117        12.2211 
  78   0.0000       0.466119        12.6837 
  79   0.0000       0.468324        12.7437 
  80   0.0000       0.482470        13.1287 
  81   0.0000       0.491293        13.3688 
  82   0.0000       0.494394        13.4531 
  83   0.0000       0.495893        13.4939 
  84   0.0000       0.502247        13.6668 
  85   0.0000       0.516050        14.0424 
  86   0.0000       0.525116        14.2891 
  87   0.0000       0.529601        14.4112 
  88   0.0000       0.545784        14.8515 
  89   0.0000       0.552703        15.0398 
  90   0.0000       0.557223        15.1628 
  91   0.0000       0.560187        15.2435 
  92   0.0000       0.568831        15.4787 
  93   0.0000       0.583998        15.8914 
  94   0.0000       0.590669        16.0729 
  95   0.0000       0.594176        16.1684 
  96   0.0000       0.628555        17.1038 
  97   0.0000       0.637582        17.3495 
  98   0.0000       0.645731        17.5712 
  99   0.0000       0.649586        17.6761 
 100   0.0000       0.665091        18.0980 
 101   0.0000       0.674682        18.3590 
 102   0.0000       0.681620        18.5478 
 103   0.0000       0.710165        19.3246 
 104   0.0000       0.712054        19.3760 
 105   0.0000       0.728320        19.8186 
 106   0.0000       0.729854        19.8603 
 107   0.0000       0.730837        19.8871 
 108   0.0000       0.782512        21.2932 
 109   0.0000       0.792202        21.5569 
 110   0.0000       0.810831        22.0638 
 111   0.0000       0.814604        22.1665 
 112   0.0000       0.849726        23.1222 
 113   0.0000       0.863819        23.5057 
 114   0.0000       0.886507        24.1231 
 115   0.0000       0.900904        24.5148 
 116   0.0000       0.917160        24.9572 
 117   0.0000       0.993112        27.0240 
 118   0.0000       1.008651        27.4468 
 119   0.0000       1.011927        27.5359 
 120   0.0000       1.028301        27.9815 
 121   0.0000       1.043872        28.4052 
 122   0.0000       1.057574        28.7780 
 123   0.0000       1.102325        29.9958 
 124   0.0000       1.179500        32.0958 
 125   0.0000       1.200777        32.6748 
 126   0.0000       1.224830        33.3293 
 127   0.0000       1.258952        34.2578 
 128   0.0000       1.289268        35.0828 
 129   0.0000       1.346214        36.6324 
 130   0.0000       1.487893        40.4876 
 131   0.0000       1.562788        42.5256 
 132   0.0000       1.566916        42.6380 
 133   0.0000       1.580285        43.0018 
 134   0.0000       1.594696        43.3939 
 135   0.0000       1.601677        43.5839 
 136   0.0000       1.692493        46.0551 
 137   0.0000       1.798831        48.9487 
 138   0.0000       1.828700        49.7615 
 139   0.0000       1.869313        50.8666 
 140   0.0000       1.874990        51.0211 
 141   0.0000       1.881590        51.2007 
 142   0.0000       1.891985        51.4835 
 143   0.0000       1.898709        51.6665 
 144   0.0000       1.900662        51.7196 
 145   0.0000       1.921816        52.2953 
 146   0.0000       1.951932        53.1148 
 147   0.0000       1.959490        53.3204 
 148   0.0000       1.964662        53.4612 
 149   0.0000       1.967765        53.5456 
 150   0.0000       1.998150        54.3724 
 151   0.0000       1.998593        54.3845 
 152   0.0000       2.009572        54.6832 
 153   0.0000       2.018156        54.9168 
 154   0.0000       2.023884        55.0727 
 155   0.0000       2.041297        55.5465 
 156   0.0000       2.044934        55.6455 
 157   0.0000       2.077494        56.5315 
 158   0.0000       2.084143        56.7124 
 159   0.0000       2.093837        56.9762 
 160   0.0000       2.101525        57.1854 
 161   0.0000       2.105151        57.2841 
 162   0.0000       2.106077        57.3093 
 163   0.0000       2.117053        57.6079 
 164   0.0000       2.141721        58.2792 
 165   0.0000       2.155317        58.6491 
 166   0.0000       2.171874        59.0997 
 167   0.0000       2.230621        60.6983 
 168   0.0000       2.230945        60.7071 
 169   0.0000       2.231886        60.7327 
 170   0.0000       2.233464        60.7756 
 171   0.0000       2.235706        60.8367 
 172   0.0000       2.236762        60.8654 
 173   0.0000       2.239776        60.9474 
 174   0.0000       2.260524        61.5120 
 175   0.0000       2.269140        61.7464 
 176   0.0000       2.273212        61.8573 
 177   0.0000       2.273928        61.8767 
 178   0.0000       2.318130        63.0795 
 179   0.0000       2.332412        63.4682 
 180   0.0000       2.339489        63.6607 
 181   0.0000       2.348798        63.9140 
 182   0.0000       2.349472        63.9324 
 183   0.0000       2.352548        64.0161 
 184   0.0000       2.353932        64.0537 
 185   0.0000       2.355839        64.1056 
 186   0.0000       2.361682        64.2646 
 187   0.0000       2.366222        64.3882 
 188   0.0000       2.367552        64.4244 
 189   0.0000       2.373093        64.5751 
 190   0.0000       2.389288        65.0158 
 191   0.0000       2.392494        65.1031 
 192   0.0000       2.394644        65.1616 
 193   0.0000       2.422333        65.9150 
 194   0.0000       2.446466        66.5717 
 195   0.0000       2.456916        66.8561 
 196   0.0000       2.460339        66.9492 
 197   0.0000       2.464663        67.0669 
 198   0.0000       2.480542        67.4990 
 199   0.0000       2.507085        68.2212 
 200   0.0000       2.513232        68.3885 
 201   0.0000       2.537117        69.0385 
 202   0.0000       2.612285        71.0839 
 203   0.0000       2.628234        71.5179 
 204   0.0000       2.652153        72.1688 
 205   0.0000       2.702338        73.5343 
 206   0.0000       2.729977        74.2865 
 207   0.0000       2.769040        75.3494 
 208   0.0000       2.792175        75.9789 
 209   0.0000       2.797141        76.1141 
 210   0.0000       2.962249        80.6069 
 211   0.0000       3.049258        82.9745 
 212   0.0000       3.110281        84.6350 
 213   0.0000       3.120577        84.9152 
 214   0.0000       3.193762        86.9067 
 215   0.0000       3.199072        87.0512 
 216   0.0000       3.203830        87.1806 
 217   0.0000       3.280650        89.2710 
 218   0.0000       3.394238        92.3619 
 219   0.0000       3.549589        96.5892 
 220   0.0000       3.564599        96.9977 
 221   0.0000       3.580221        97.4228 
 222   0.0000       3.751500       102.0835 
 223   0.0000       3.794043       103.2412 
 224   0.0000       3.895480       106.0014 
 225   0.0000       4.158956       113.1709 
 226   0.0000       4.174681       113.5988 
 227   0.0000       4.385021       119.3225 
 228   0.0000       4.441946       120.8715 
 229   0.0000       4.823529       131.2549 
 230   0.0000       4.830542       131.4457 
 231   0.0000       4.922517       133.9485 
 232   0.0000       4.928446       134.1098 
 233   0.0000       5.036184       137.0415 
 234   0.0000       5.074591       138.0866 
 235   0.0000       5.130073       139.5964 
 236   0.0000       5.292702       144.0218 
 237   0.0000       5.449277       148.2824 
 238   0.0000       5.487036       149.3098 
 239   0.0000       5.792747       157.6287 
 240   0.0000      11.013077       299.6811 
 241   0.0000      11.028157       300.0914 
 242   0.0000      11.031867       300.1924 
 243   0.0000      11.038855       300.3825 
 244   0.0000      11.117052       302.5104 
 245   0.0000      11.131854       302.9131 
 246   0.0000      11.141724       303.1817 
 247   0.0000      11.147787       303.3467 
 248   0.0000      11.206302       304.9390 
 249   0.0000      22.645728       616.2216 
 250   0.0000      24.935981       678.5425 
 251   0.0000      25.059820       681.9124 
 252   0.0000      25.075409       682.3366 
 253   0.0000      32.288856       878.6244 
 254   0.0000      35.420859       963.8506 
 255   0.0000      35.634595       969.6666 
 256   0.0000      35.663473       970.4524 
 257   0.0000      35.737086       972.4556 
 258   0.0000     123.510151      3360.8821 

                    ********************************
                    * MULLIKEN POPULATION ANALYSIS *
                    ********************************

-----------------------
MULLIKEN ATOMIC CHARGES
-----------------------
   0 C :   -0.230785
   1 N :   -0.300580
   2 H :    0.135042
   3 H :    0.175231
   4 H :    0.175070
   5 H :    0.270053
   6 H :    0.272122
   7 H :    0.257374
   8 Pb:    0.917840
   9 Cl:   -0.456004
  10 Cl:   -0.754168
  11 Cl:   -0.461194
Sum of atomic charges:   -0.0000000

--------------------------------
MULLIKEN REDUCED ORBITAL CHARGES
--------------------------------
  0 C s       :     3.258581  s :     3.258581
      pz      :     0.982753  p :     2.900008
      px      :     1.002961
      py      :     0.914294
      dz2     :     0.005730  d :     0.066133
      dxz     :     0.017829
      dyz     :     0.018265
      dx2y2   :     0.006081
      dxy     :     0.018228
      f0      :     0.000357  f :     0.006062
      f+1     :     0.000491
      f-1     :     0.000676
      f+2     :     0.000746
      f-2     :     0.002688
      f+3     :     0.000532
      f-3     :     0.000572
  1 N s       :     3.429807  s :     3.429807
      pz      :     1.277463  p :     3.818331
      px      :     1.272917
      py      :     1.267951
      dz2     :     0.005623  d :     0.050177
      dxz     :     0.013167
      dyz     :     0.012319
      dx2y2   :     0.006377
      dxy     :     0.012692
      f0      :     0.000133  f :     0.002265
      f+1     :     0.000178
      f-1     :     0.000211
      f+2     :     0.000232
      f-2     :     0.001158
      f+3     :     0.000169
      f-3     :     0.000185
  2 H s       :     0.843696  s :     0.843696
      pz      :     0.008191  p :     0.021262
      px      :     0.007671
      py      :     0.005400
  3 H s       :     0.802466  s :     0.802466
      pz      :     0.006695  p :     0.022303
      px      :     0.007638
      py      :     0.007971
  4 H s       :     0.802621  s :     0.802621
      pz      :     0.007057  p :     0.022309
      px      :     0.007181
      py      :     0.008071
  5 H s       :     0.697082  s :     0.697082
      pz      :     0.009454  p :     0.032865
      px      :     0.011875
      py      :     0.011536
  6 H s       :     0.694766  s :     0.694766
      pz      :     0.011499  p :     0.033112
      px      :     0.009864
      py      :     0.011750
  7 H s       :     0.694017  s :     0.694017
      pz      :     0.017728  p :     0.048609
      px      :     0.016477
      py      :     0.014404
  8 Pbs       :     3.949757  s :     3.949757
      pz      :     2.321687  p :     6.915216
      px      :     2.313511
      py      :     2.280019
      dz2     :     2.041513  d :    10.179617
      dxz     :     2.060731
      dyz     :     2.026652
      dx2y2   :     2.026525
      dxy     :     2.024195
      f0      :     0.005604  f :     0.037570
      f+1     :     0.008048
      f-1     :     0.003670
      f+2     :     0.006288
      f-2     :     0.007639
      f+3     :     0.003100
      f-3     :     0.003221
  9 Cls       :     5.959508  s :     5.959508
      pz      :     3.766783  p :    11.478074
      px      :     3.813322
      py      :     3.897969
      dz2     :     0.004931  d :     0.017674
      dxz     :     0.006536
      dyz     :     0.003482
      dx2y2   :     0.001311
      dxy     :     0.001414
      f0      :     0.000109  f :     0.000748
      f+1     :     0.000241
      f-1     :     0.000099
      f+2     :     0.000113
      f-2     :     0.000130
      f+3     :     0.000025
      f-3     :     0.000030
 10 Cls       :     5.960803  s :     5.960803
      pz      :     3.952621  p :    11.786352
      px      :     3.956392
      py      :     3.877339
      dz2     :     0.000724  d :     0.006706
      dxz     :     0.001023
      dyz     :     0.002021
      dx2y2   :     0.001114
      dxy     :     0.001824
      f0      :     0.000048  f :     0.000306
      f+1     :     0.000012
      f-1     :     0.000020
      f+2     :     0.000038
      f-2     :     0.000104
      f+3     :     0.000068
      f-3     :     0.000017
 11 Cls       :     5.959442  s :     5.959442
      pz      :     3.799657  p :    11.483475
      px      :     3.782326
      py      :     3.901493
      dz2     :     0.002187  d :     0.017536
      dxz     :     0.007097
      dyz     :     0.001447
      dx2y2   :     0.003843
      dxy     :     0.002963
      f0      :     0.000080  f :     0.000741
      f+1     :     0.000158
      f-1     :     0.000021
      f+2     :     0.000200
      f-2     :     0.000123
      f+3     :     0.000077
      f-3     :     0.000082


                     *******************************
                     * LOEWDIN POPULATION ANALYSIS *
                     *******************************

----------------------
LOEWDIN ATOMIC CHARGES
----------------------
   0 C :   -0.274270
   1 N :    0.096792
   2 H :    0.115218
   3 H :    0.134135
   4 H :    0.133922
   5 H :    0.196456
   6 H :    0.195419
   7 H :    0.112418
   8 Pb:    0.377771
   9 Cl:   -0.191987
  10 Cl:   -0.699744
  11 Cl:   -0.196130

-------------------------------
LOEWDIN REDUCED ORBITAL CHARGES
-------------------------------
  0 C s       :     2.857518  s :     2.857518
      pz      :     1.035875  p :     3.085276
      px      :     1.048275
      py      :     1.001125
      dz2     :     0.026043  d :     0.294599
      dxz     :     0.079304
      dyz     :     0.079828
      dx2y2   :     0.030821
      dxy     :     0.078603
      f0      :     0.005239  f :     0.036876
      f+1     :     0.003792
      f-1     :     0.005580
      f+2     :     0.004185
      f-2     :     0.007354
      f+3     :     0.004982
      f-3     :     0.005745
  1 N s       :     3.007265  s :     3.007265
      pz      :     1.246719  p :     3.722638
      px      :     1.242419
      py      :     1.233500
      dz2     :     0.017719  d :     0.163707
      dxz     :     0.040514
      dyz     :     0.042532
      dx2y2   :     0.019210
      dxy     :     0.043732
      f0      :     0.001540  f :     0.009598
      f+1     :     0.001121
      f-1     :     0.001392
      f+2     :     0.001050
      f-2     :     0.001717
      f+3     :     0.001284
      f-3     :     0.001494
  2 H s       :     0.822758  s :     0.822758
      pz      :     0.022902  p :     0.062024
      px      :     0.021779
      py      :     0.017343
  3 H s       :     0.802414  s :     0.802414
      pz      :     0.018842  p :     0.063451
      px      :     0.023063
      py      :     0.021546
  4 H s       :     0.802626  s :     0.802626
      pz      :     0.021419  p :     0.063452
      px      :     0.020239
      py      :     0.021793
  5 H s       :     0.707236  s :     0.707236
      pz      :     0.030772  p :     0.096307
      px      :     0.032936
      py      :     0.032600
  6 H s       :     0.707028  s :     0.707028
      pz      :     0.031962  p :     0.097553
      px      :     0.032323
      py      :     0.033268
  7 H s       :     0.721662  s :     0.721662
      pz      :     0.060997  p :     0.165920
      px      :     0.056333
      py      :     0.048590
  8 Pbs       :     3.831229  s :     3.831229
      pz      :     2.434177  p :     7.190126
      px      :     2.417943
      py      :     2.338006
      dz2     :     2.100784  d :    10.500078
      dxz     :     2.199227
      dyz     :     2.067836
      dx2y2   :     2.072853
      dxy     :     2.059378
      f0      :     0.013505  f :     0.100797
      f+1     :     0.023461
      f-1     :     0.009594
      f+2     :     0.018261
      f-2     :     0.020544
      f+3     :     0.007139
      f-3     :     0.008293
  9 Cls       :     5.781898  s :     5.781898
      pz      :     3.744422  p :    11.378181
      px      :     3.777732
      py      :     3.856026
      dz2     :     0.008053  d :     0.030385
      dxz     :     0.012661
      dyz     :     0.006201
      dx2y2   :     0.001213
      dxy     :     0.002256
      f0      :     0.000094  f :     0.001523
      f+1     :     0.000652
      f-1     :     0.000260
      f+2     :     0.000140
      f-2     :     0.000315
      f+3     :     0.000018
      f-3     :     0.000045
 10 Cls       :     5.930287  s :     5.930287
      pz      :     3.940069  p :    11.759880
      px      :     3.945250
      py      :     3.874561
      dz2     :     0.000801  d :     0.009068
      dxz     :     0.001269
      dyz     :     0.002960
      dx2y2   :     0.001363
      dxy     :     0.002676
      f0      :     0.000084  f :     0.000510
      f+1     :     0.000012
      f-1     :     0.000022
      f+2     :     0.000060
      f-2     :     0.000191
      f+3     :     0.000122
      f-3     :     0.000019
 11 Cls       :     5.781735  s :     5.781735
      pz      :     3.765991  p :    11.382555
      px      :     3.758023
      py      :     3.858541
      dz2     :     0.001715  d :     0.030320
      dxz     :     0.014857
      dyz     :     0.002197
      dx2y2   :     0.006901
      dxy     :     0.004650
      f0      :     0.000218  f :     0.001520
      f+1     :     0.000183
      f-1     :     0.000022
      f+2     :     0.000501
      f-2     :     0.000276
      f+3     :     0.000128
      f-3     :     0.000192


                      *****************************
                      * MAYER POPULATION ANALYSIS *
                      *****************************

  NA   - Mulliken gross atomic population
  ZA   - Total nuclear charge
  QA   - Mulliken gross atomic charge
  VA   - Mayer's total valence
  BVA  - Mayer's bonded valence
  FA   - Mayer's free valence

  ATOM       NA         ZA         QA         VA         BVA        FA
  0 C      6.2308     6.0000    -0.2308     3.8077     3.8077     0.0000
  1 N      7.3006     7.0000    -0.3006     3.2816     3.2816     0.0000
  2 H      0.8650     1.0000     0.1350     0.9607     0.9607     0.0000
  3 H      0.8248     1.0000     0.1752     0.9768     0.9768    -0.0000
  4 H      0.8249     1.0000     0.1751     0.9766     0.9766     0.0000
  5 H      0.7299     1.0000     0.2701     0.9366     0.9366     0.0000
  6 H      0.7279     1.0000     0.2721     0.9354     0.9354    -0.0000
  7 H      0.7426     1.0000     0.2574     1.0912     1.0912     0.0000
  8 Pb    21.0822    22.0000     0.9178     1.8278     1.8278    -0.0000
  9 Cl    17.4560    17.0000    -0.4560     0.9389     0.9389    -0.0000
 10 Cl    17.7542    17.0000    -0.7542     0.4433     0.4433    -0.0000
 11 Cl    17.4612    17.0000    -0.4612     0.9303     0.9303     0.0000

  Mayer bond orders larger than 0.1
B(  0-C ,  1-N ) :   0.8882 B(  0-C ,  2-H ) :   0.9646 B(  0-C ,  3-H ) :   0.9630 
B(  0-C ,  4-H ) :   0.9633 B(  1-N ,  5-H ) :   0.8963 B(  1-N ,  6-H ) :   0.8959 
B(  1-N ,  7-H ) :   0.6797 B(  7-H , 10-Cl) :   0.4090 B(  8-Pb,  9-Cl) :   0.9041 
B(  8-Pb, 11-Cl) :   0.8954 

-------
TIMINGS
-------

Total SCF time: 0 days 0 hours 4 min 51 sec 

Total time                  ....     291.083 sec
Sum of individual times     ....     273.896 sec  ( 94.1%)

Fock matrix formation       ....     268.072 sec  ( 92.1%)
  Coulomb formation         ....     207.114 sec  ( 77.3% of F)
  Split-RI-J                ....      18.488 sec  (  6.9% of F)
  Chain of spheres X        ....     204.879 sec  ( 76.4% of F)
  COS-X 1 center corr.      ....       0.000 sec  (  0.0% of F)
  XC integration            ....      60.994 sec  ( 22.8% of F)
    Basis function eval.    ....      30.541 sec  ( 50.1% of XC)
    Density eval.           ....      11.543 sec  ( 18.9% of XC)
    XC-Functional eval.     ....       3.811 sec  (  6.2% of XC)
    XC-Potential eval.      ....      14.009 sec  ( 23.0% of XC)
Diagonalization             ....       0.639 sec  (  0.2%)
Density matrix formation    ....       0.045 sec  (  0.0%)
Population analysis         ....       0.071 sec  (  0.0%)
Initial guess               ....       0.115 sec  (  0.0%)
Orbital Transformation      ....       0.000 sec  (  0.0%)
Orbital Orthonormalization  ....       0.112 sec  (  0.0%)
DIIS solution               ....       0.155 sec  (  0.1%)
SOSCF solution              ....       0.115 sec  (  0.0%)
Grid generation             ....       4.685 sec  (  1.6%)

------------------------------------------------------------------------------
                              ORCA MP2 CALCULATION
------------------------------------------------------------------------------


----------------------
RI-MP2 ENERGY+GRADIENT
----------------------
Dimension of the basis                    ...  259
Memory devoted to MP2                     ... 1000 MB   
Data format for buffers                   ... DOUBLE
Compression type for matrix containers    ... UNCOMPRESSED
Overall scaling of the MP2 energy         ...   2.700e-01 Eh
Calculating two index integrals           ... done (    0.012 sec)
Cholesky decomposition of the V-matrix    ... done
Cholesky decomposition of V**-1           ... done (    0.027 sec)

-----------------
RI-TRANSFORMATION (AUX index driven)
-----------------

Dimension of the orbital-basis         ... 259
Dimension of the aux-basis             ... 493
Transformation of internal MOs         ...    0-  45
Transformation of internal/external MOs...    0-  45 to   46- 258
Number Format for Storage              ... Double (8 Byte)
Integral mode                          ... Direct

First Phase: integral generation and transformation of MO indices
  Aux angular momentum 0               ... done (    0.350 sec)
  Aux angular momentum 1               ... done (    0.308 sec)
  Aux angular momentum 2               ... done (    0.373 sec)
  Aux angular momentum 3               ... done (    0.215 sec)
  Aux angular momentum 4               ... done (    0.191 sec)
Closing buffer VIJ ( 0.00 GB; CompressionRatio= 1.95)
Closing buffer VIA ( 0.04 GB; CompressionRatio= 1.00)
  Phase 1 completed in     1.539 sec
Second Phase: sorting and transformation of aux index

IJ-Transformation
Memory available                       ... 990 MB 
Max. # MO pairs treated in a batch     ... 46    
# of internal orbitals                 ... 46
# batches for internal orbitals        ... 1
Closing buffer IJV ( 0.00 GB; CompressionRatio= 1.00)
(ij|v) transformation done in     0.090 sec

IA-Transformation
Memory available                       ... 990 MB 
Max. # MO pairs treated in a batch     ... 46    
# of internal orbitals                 ... 46
# batches for internal orbitals        ... 1
Closing buffer IAV ( 0.04 GB; CompressionRatio= 1.00)
(ia|v) transformation done in     0.352 sec

  Phase 2 completed in     0.461 sec
RI-Integral transformation completed in     2.000 sec
Opening buffers                              ... done

Starting loop over batches of integrals:

Operator 0  - window                       ... (  0- 45)x( 46-258)
Operator 0  - Memory available             ...  1000 MB
Operator 0  - Memory needed per MO         ...   1.6 MB
Operator 0  - Number of orbitals per batch ... 46
Operator 0  - Number of batches            ... 1

OPERATOR  0   PASS   0:  MOs     0 ...   45
  Reading integrals       ... ok
  Internal MO   2
  Internal MO   5
  Internal MO   8
  Internal MO  11
  Internal MO  14
  Internal MO  17
  Internal MO  20
  Internal MO  23
  Internal MO  26
  Internal MO  29
  Internal MO  32
  Internal MO  35
  Internal MO  38
  Internal MO  41
  Internal MO  44
Closing buffer GIPV ( 0.04 GB; CompressionRatio= 1.00)
Time spent in pair loops =    42.605 sec

-----------------------------------------------
 RI-MP2 CORRELATION ENERGY:     -0.573793233 Eh
-----------------------------------------------


---------------------
MP2 DENSITY FORMATION
---------------------

Completing the external part of the density      ... done
Storing the unrelaxed density                    ... done

Calculating the xc-kernel                        ... done
Calculating G(D)                                 ... done
Completing the Lagrangian                        ... done
Solving the Z-vector equations                   ... 

------------------------------------------------------------------------------
                           ORCA CP-SCF CALCULATION
------------------------------------------------------------------------------

Input orbitals are from        ... PbMACl3_mp2_md2_5.orca.gbw
Input Perturbation             ... PbMACl3_mp2_md2_5.orca.pin.tmp
Wavefunction output            ... PbMACl3_mp2_md2_5.orca.pout.tmp
Perturbation mode              ... Real perturbation
Solver                         ... DIIS
   MaxDIIS                     ... 20
   Levelshift                  ...    3.000e-01 Eh
Max. number of iterations      ... 128
Convergence tolerance          ... 1.000e-08
Integral handling              ... Direct
COSX GridX                     ... 1
Number of perturbations        ... 1
Number of operators            ... 1
Orbital ranges used for CP-SCF:
 Operator 0:  Orbitals   0... 45  to  46...258
DFT calculation                         ... on
Exchange functional (SCF)               ... B88
Exchange functional (CP-SCF)            ... B88
   X-Alpha parameter    XAlpha (SCF)    ...  0.666667
   X-Alpha parameter    XAlpha (CP-SCF) ...  0.666667
   Becke's b parameter  XBeta (SCF)     ...  0.004200
   Becke's b parameter  XBeta (CP-SCF)  ...  0.004200
Correlation functional (SCF)            ... LYP
Correlation functional (CP-SCF)         ... LYP
 LDA part of GGA corr.  LDAOpt (SCF)    ... VWN-3
 LDA part of GGA corr.  LDAOpt (CP-SCF) ... VWN-3
Hybrid DFT                              ... on
   Exchange mixing (SCF)                ...  0.530
   Exchange mixing (CP-SCF)             ...  0.530
   GGA exch. scaling(SCF)               ...  0.470
   GGA exch. scaling (CP-SCF)           ...  0.470
   GGA corr. scaling (SCF)              ...  0.730
   GGA corr. scaling (CP-SCF)           ...  0.730
The RIJCOSX approximation is active
Variables per vector in CP-SCF ... 9798
Number of vectors sought       ... 1
Calculating the xc-kernel      ... done

Solving the CP-SCF equations by a DIIS algorithm

-----------------
CP-SCF ITERATIONS
-----------------
  Iteration   0: MaxR=  0.088739050
  Iteration   1: MaxR=  0.039307033
  Iteration   2: MaxR=  0.010889737
  Iteration   3: MaxR=  0.005730329
  Iteration   4: MaxR=  0.003329763
  Iteration   5: MaxR=  0.001610602
  Iteration   6: MaxR=  0.000680482
  Iteration   7: MaxR=  0.000219834
  Iteration   8: MaxR=  0.000117657
  Iteration   9: MaxR=  0.000065223
  Iteration  10: MaxR=  0.000036051
  Iteration  11: MaxR=  0.000017378
  Iteration  12: MaxR=  0.000007750
  Iteration  13: MaxR=  0.000003493
  Iteration  14: MaxR=  0.000001326
  Iteration  15: MaxR=  0.000000612
  Iteration  16: MaxR=  0.000000336
  Iteration  17: MaxR=  0.000000195
  Iteration  18: MaxR=  0.000000094
  Iteration  19: MaxR=  0.000000035
  Iteration  20: MaxR=  0.000000014
  Iteration  21: MaxR=  0.000000006
                              *** THE CP-SCF HAS CONVERGED *** 
done
Finalizing the relaxed density                   ... done
Transforming P to the AO basis                   ... done
Storing the relaxed density                      ... done

------------------------------------
ENERGY WEIGHTED DENSITY FINALIZATION
------------------------------------

Gathering the parts of the W-matrix              ... done
Forming the Z-density                            ... done
Transforming Z to the AO basis                   ... done
Calculating G(Z)                                 ... done
Finalizing the W-matrix                          ... done
Transforming W to the AO basis and storing       ... done
Entering the RIJONX and RIJCOSX sections
Starting the three-index derivative integrals:
Operator 0  - Memory available             ...  1000 MB
Operator 0  - Memory needed per MO         ...   1.0 MB
Operator 0  - Number of orbitals per batch ... 46
Operator 0  - Number of batches            ... 1

OPERATOR  0   PASS   0:  MOs     0 ...   45

----------------------------------
MP2 DERIVATIVE INTEGRAL GENERATION
----------------------------------


Input Correlated Electron Density   ... PbMACl3_mp2_md2_5.orca.pmp2re
Input Energy Weighted Density       ... PbMACl3_mp2_md2_5.orca.wmp2.tmp
Input SCF Electron Density          ... PbMACl3_mp2_md2_5.orca.scfp.tmp

One-Electron Terms    ...
  ECP gradient                                           ... One-Electron Terms done

-----------------------------------------------------------
MP2 COSX Grid Generation
-----------------------------------------------------------

General Integration Accuracy     IntAcc      ...  4.340
Radial Grid Type                 RadialGrid  ... Gauss-Chebyshev
Angular Grid (max. acc.)         AngularGrid ... Lebedev-302
Angular grid pruning method      GridPruning ... 3 (G Style)
Weight generation scheme         WeightScheme... Becke
Basis function cutoff            BFCut       ...    1.0000e-11
Integration weight cutoff        WCut        ...    1.0000e-14
Grids for H and He will be reduced by one unit

# of grid points (after initial pruning)     ...  57718 (   0.0 sec)
# of grid points (after weights+screening)   ...  54920 (   0.1 sec)
nearest neighbour list constructed           ...    0.0 sec
Grid point re-assignment to atoms done       ...    0.0 sec
Grid point division into batches done        ...    0.2 sec
Reduced shell lists constructed in    1.4 sec

Total number of grid points                  ...    54920
Total number of batches                      ...      864
Average number of points per batch           ...       63
Average number of grid points per atom       ...     4577
Average number of shells per batch           ...    50.30 (49.80%)
Average number of basis functions per batch  ...   129.18 (49.88%)
Average number of large shells per batch     ...    37.23 (74.01%)
Average number of large basis fcns per batch ...    94.92 (73.48%)
Maximum spatial batch extension              ...  35.01, 31.21, 35.01 au
Average spatial batch extension              ...   3.26,  3.16,  3.22 au

Overlap Fitting                  UseSFitting ... on
Two electron COSX terms .... 
Integration Timings:
Total Time                  =    67.4 sec
Basis fcn evaluation        =     0.6 sec
Density evaluation          =     0.8 sec
Integral evaluation         =    64.6 sec
K(P) evaluation             =     0.6 sec
                          .... COSX two electron terms done
COSX two-electron contribution to the gradient
     0:    -0.014416    -0.036350    -0.016870
     1:     0.040375     0.119311     0.041411
     2:     0.098224    -0.074990     0.105253
     3:    -0.105718     0.100461     0.094859
     4:     0.101217     0.101868    -0.098368
     5:    -0.122396    -0.128530     0.102116
     6:     0.108426    -0.130398    -0.116991
     7:    -0.083597     0.028518    -0.088513
     8:     0.016585    -0.037580     0.015402
     9:     0.049980     0.019078    -0.073505
    10:    -0.019822     0.024530    -0.020969
    11:    -0.070090     0.013679     0.056356
Exchange-correlation gradient    ... done
Dispersion correction            ... 
Entering the calculation of the dispersion correction...

Checking the input atom types...

Done
done

                *********************************************
                * UNRELAXED MP2 DENSITY POPULATION ANALYSIS *
                *********************************************

------------------------------------------------------------------------------
                           ORCA POPULATION ANALYSIS
------------------------------------------------------------------------------
Input electron density              ... PbMACl3_mp2_md2_5.orca.pmp2ur
BaseName (.gbw .S,...)              ... PbMACl3_mp2_md2_5.orca

                    ********************************
                    * MULLIKEN POPULATION ANALYSIS *
                    ********************************

-----------------------
MULLIKEN ATOMIC CHARGES
-----------------------
   0 C :   -0.235391
   1 N :   -0.299633
   2 H :    0.135938
   3 H :    0.176184
   4 H :    0.176033
   5 H :    0.269721
   6 H :    0.271834
   7 H :    0.255355
   8 Pb:    0.897527
   9 Cl:   -0.445628
  10 Cl:   -0.750932
  11 Cl:   -0.451008
Sum of atomic charges:   -0.0000000

--------------------------------
MULLIKEN REDUCED ORBITAL CHARGES
--------------------------------
  0 C s       :     3.257356  s :     3.257356
      pz      :     0.981409  p :     2.896160
      px      :     1.001437
      py      :     0.913315
      dz2     :     0.007742  d :     0.074681
      dxz     :     0.019387
      dyz     :     0.019738
      dx2y2   :     0.008073
      dxy     :     0.019741
      f0      :     0.000512  f :     0.007194
      f+1     :     0.000665
      f-1     :     0.000847
      f+2     :     0.000927
      f-2     :     0.002810
      f+3     :     0.000696
      f-3     :     0.000738
  1 N s       :     3.427531  s :     3.427531
      pz      :     1.273994  p :     3.808070
      px      :     1.269555
      py      :     1.264522
      dz2     :     0.007850  d :     0.060739
      dxz     :     0.015212
      dyz     :     0.014361
      dx2y2   :     0.008602
      dxy     :     0.014714
      f0      :     0.000275  f :     0.003293
      f+1     :     0.000328
      f-1     :     0.000362
      f+2     :     0.000385
      f-2     :     0.001296
      f+3     :     0.000314
      f-3     :     0.000332
  2 H s       :     0.841753  s :     0.841753
      pz      :     0.008524  p :     0.022309
      px      :     0.008008
      py      :     0.005777
  3 H s       :     0.800554  s :     0.800554
      pz      :     0.007025  p :     0.023261
      px      :     0.007961
      py      :     0.008275
  4 H s       :     0.800700  s :     0.800700
      pz      :     0.007386  p :     0.023267
      px      :     0.007507
      py      :     0.008374
  5 H s       :     0.696756  s :     0.696756
      pz      :     0.009680  p :     0.033523
      px      :     0.012068
      py      :     0.011775
  6 H s       :     0.694401  s :     0.694401
      pz      :     0.011698  p :     0.033766
      px      :     0.010083
      py      :     0.011985
  7 H s       :     0.695465  s :     0.695465
      pz      :     0.017890  p :     0.049181
      px      :     0.016652
      py      :     0.014638
  8 Pbs       :     3.929233  s :     3.929233
      pz      :     2.332815  p :     6.950384
      px      :     2.324841
      py      :     2.292727
      dz2     :     2.035803  d :    10.149806
      dxz     :     2.054348
      dyz     :     2.020793
      dx2y2   :     2.020558
      dxy     :     2.018304
      f0      :     0.010703  f :     0.073050
      f+1     :     0.013147
      f-1     :     0.008727
      f+2     :     0.011368
      f-2     :     0.012669
      f+3     :     0.008169
      f-3     :     0.008267
  9 Cls       :     5.954548  s :     5.954548
      pz      :     3.751397  p :    11.431958
      px      :     3.797797
      py      :     3.882764
      dz2     :     0.012616  d :     0.055710
      dxz     :     0.014128
      dyz     :     0.011152
      dx2y2   :     0.008859
      dxy     :     0.008954
      f0      :     0.000502  f :     0.003412
      f+1     :     0.000626
      f-1     :     0.000486
      f+2     :     0.000496
      f-2     :     0.000511
      f+3     :     0.000393
      f-3     :     0.000398
 10 Cls       :     5.956556  s :     5.956556
      pz      :     3.939297  p :    11.746286
      px      :     3.943101
      py      :     3.863889
      dz2     :     0.008412  d :     0.045165
      dxz     :     0.008695
      dyz     :     0.009731
      dx2y2   :     0.008799
      dxy     :     0.009529
      f0      :     0.000420  f :     0.002925
      f+1     :     0.000383
      f-1     :     0.000395
      f+2     :     0.000413
      f-2     :     0.000482
      f+3     :     0.000443
      f-3     :     0.000391
 11 Cls       :     5.954496  s :     5.954496
      pz      :     3.784170  p :    11.437522
      px      :     3.767015
      py      :     3.886336
      dz2     :     0.009805  d :     0.055584
      dxz     :     0.014680
      dyz     :     0.008997
      dx2y2   :     0.011472
      dxy     :     0.010629
      f0      :     0.000456  f :     0.003405
      f+1     :     0.000547
      f-1     :     0.000391
      f+2     :     0.000579
      f-2     :     0.000505
      f+3     :     0.000460
      f-3     :     0.000466


                     *******************************
                     * LOEWDIN POPULATION ANALYSIS *
                     *******************************

----------------------
LOEWDIN ATOMIC CHARGES
----------------------
   0 C :   -0.277395
   1 N :    0.095854
   2 H :    0.115885
   3 H :    0.134843
   4 H :    0.134633
   5 H :    0.196178
   6 H :    0.195175
   7 H :    0.111620
   8 Pb:    0.359867
   9 Cl:   -0.182873
  10 Cl:   -0.696589
  11 Cl:   -0.187198

-------------------------------
LOEWDIN REDUCED ORBITAL CHARGES
-------------------------------
  0 C s       :     2.856921  s :     2.856921
      pz      :     1.033565  p :     3.078380
      px      :     1.045869
      py      :     0.998945
      dz2     :     0.027835  d :     0.303470
      dxz     :     0.081102
      dyz     :     0.081585
      dx2y2   :     0.032572
      dxy     :     0.080376
      f0      :     0.005463  f :     0.038624
      f+1     :     0.004007
      f-1     :     0.005790
      f+2     :     0.004397
      f-2     :     0.007806
      f+3     :     0.005206
      f-3     :     0.005955
  1 N s       :     3.006677  s :     3.006677
      pz      :     1.243110  p :     3.711794
      px      :     1.238877
      py      :     1.229806
      dz2     :     0.019683  d :     0.174761
      dxz     :     0.042873
      dyz     :     0.044932
      dx2y2   :     0.021173
      dxy     :     0.046100
      f0      :     0.001716  f :     0.010914
      f+1     :     0.001293
      f-1     :     0.001562
      f+2     :     0.001221
      f-2     :     0.001997
      f+3     :     0.001462
      f-3     :     0.001664
  2 H s       :     0.820198  s :     0.820198
      pz      :     0.023565  p :     0.063917
      px      :     0.022411
      py      :     0.017941
  3 H s       :     0.799958  s :     0.799958
      pz      :     0.019409  p :     0.065200
      px      :     0.023674
      py      :     0.022116
  4 H s       :     0.800167  s :     0.800167
      pz      :     0.022008  p :     0.065200
      px      :     0.020824
      py      :     0.022367
  5 H s       :     0.706038  s :     0.706038
      pz      :     0.031224  p :     0.097784
      px      :     0.033396
      py      :     0.033165
  6 H s       :     0.705811  s :     0.705811
      pz      :     0.032402  p :     0.099014
      px      :     0.032784
      py      :     0.033827
  7 H s       :     0.721429  s :     0.721429
      pz      :     0.061358  p :     0.166952
      px      :     0.056695
      py      :     0.048899
  8 Pbs       :     3.812104  s :     3.812104
      pz      :     2.444448  p :     7.223301
      px      :     2.428493
      py      :     2.350359
      dz2     :     2.094798  d :    10.468439
      dxz     :     2.191736
      dyz     :     2.061874
      dx2y2   :     2.066629
      dxy     :     2.053403
      f0      :     0.018586  f :     0.136289
      f+1     :     0.028619
      f-1     :     0.014641
      f+2     :     0.023390
      f-2     :     0.025517
      f+3     :     0.012208
      f-3     :     0.013326
  9 Cls       :     5.777185  s :     5.777185
      pz      :     3.729477  p :    11.333028
      px      :     3.762509
      py      :     3.841041
      dz2     :     0.015724  d :     0.068426
      dxz     :     0.020324
      dyz     :     0.013846
      dx2y2   :     0.008747
      dxy     :     0.009785
      f0      :     0.000491  f :     0.004234
      f+1     :     0.001055
      f-1     :     0.000653
      f+2     :     0.000528
      f-2     :     0.000705
      f+3     :     0.000387
      f-3     :     0.000414
 10 Cls       :     5.925851  s :     5.925851
      pz      :     3.926792  p :    11.719953
      px      :     3.931999
      py      :     3.861162
      dz2     :     0.008519  d :     0.047641
      dxz     :     0.008972
      dyz     :     0.010672
      dx2y2   :     0.009095
      dxy     :     0.010382
      f0      :     0.000459  f :     0.003144
      f+1     :     0.000384
      f-1     :     0.000398
      f+2     :     0.000436
      f-2     :     0.000573
      f+3     :     0.000499
      f-3     :     0.000394
 11 Cls       :     5.777032  s :     5.777032
      pz      :     3.750836  p :    11.337567
      px      :     3.743135
      py      :     3.843596
      dz2     :     0.009288  d :     0.068368
      dxz     :     0.022526
      dyz     :     0.009730
      dx2y2   :     0.014538
      dxy     :     0.012286
      f0      :     0.000600  f :     0.004231
      f+1     :     0.000580
      f-1     :     0.000393
      f+2     :     0.000894
      f-2     :     0.000666
      f+3     :     0.000517
      f-3     :     0.000581


                      *****************************
                      * MAYER POPULATION ANALYSIS *
                      *****************************

  NA   - Mulliken gross atomic population
  ZA   - Total nuclear charge
  QA   - Mulliken gross atomic charge
  VA   - Mayer's total valence
  BVA  - Mayer's bonded valence
  FA   - Mayer's free valence

  ATOM       NA         ZA         QA         VA         BVA        FA
  0 C      6.2354     6.0000    -0.2354     3.8536     3.7403     0.1134
  1 N      7.2996     7.0000    -0.2996     3.3562     3.2147     0.1415
  2 H      0.8641     1.0000     0.1359     0.9638     0.9446     0.0193
  3 H      0.8238     1.0000     0.1762     0.9792     0.9611     0.0181
  4 H      0.8240     1.0000     0.1760     0.9789     0.9609     0.0180
  5 H      0.7303     1.0000     0.2697     0.9392     0.9187     0.0205
  6 H      0.7282     1.0000     0.2718     0.9379     0.9177     0.0202
  7 H      0.7446     1.0000     0.2554     1.0938     1.0715     0.0223
  8 Pb    21.1025    22.0000     0.8975     2.1418     1.7653     0.3765
  9 Cl    17.4456    17.0000    -0.4456     1.1784     0.9057     0.2727
 10 Cl    17.7509    17.0000    -0.7509     0.6821     0.4330     0.2491
 11 Cl    17.4510    17.0000    -0.4510     1.1697     0.8975     0.2721

  Mayer bond orders larger than 0.1
B(  0-C ,  1-N ) :   0.8670 B(  0-C ,  2-H ) :   0.9492 B(  0-C ,  3-H ) :   0.9481 
B(  0-C ,  4-H ) :   0.9485 B(  1-N ,  5-H ) :   0.8797 B(  1-N ,  6-H ) :   0.8795 
B(  1-N ,  7-H ) :   0.6680 B(  7-H , 10-Cl) :   0.4012 B(  8-Pb,  9-Cl) :   0.8729 
B(  8-Pb, 11-Cl) :   0.8647 


                *******************************************
                * RELAXED MP2 DENSITY POPULATION ANALYSIS *
                *******************************************

------------------------------------------------------------------------------
                           ORCA POPULATION ANALYSIS
------------------------------------------------------------------------------
Input electron density              ... PbMACl3_mp2_md2_5.orca.pmp2re
BaseName (.gbw .S,...)              ... PbMACl3_mp2_md2_5.orca

                    ********************************
                    * MULLIKEN POPULATION ANALYSIS *
                    ********************************

-----------------------
MULLIKEN ATOMIC CHARGES
-----------------------
   0 C :   -0.253005
   1 N :   -0.295542
   2 H :    0.139434
   3 H :    0.178751
   4 H :    0.178578
   5 H :    0.267912
   6 H :    0.269846
   7 H :    0.247246
   8 Pb:    0.832110
   9 Cl:   -0.412903
  10 Cl:   -0.733723
  11 Cl:   -0.418706
Sum of atomic charges:   -0.0000000

--------------------------------
MULLIKEN REDUCED ORBITAL CHARGES
--------------------------------
  0 C s       :     3.259536  s :     3.259536
      pz      :     0.988294  p :     2.916026
      px      :     1.007990
      py      :     0.919742
      dz2     :     0.007892  d :     0.070415
      dxz     :     0.017738
      dyz     :     0.018272
      dx2y2   :     0.008229
      dxy     :     0.018284
      f0      :     0.000491  f :     0.007027
      f+1     :     0.000656
      f-1     :     0.000834
      f+2     :     0.000917
      f-2     :     0.002729
      f+3     :     0.000678
      f-3     :     0.000723
  1 N s       :     3.427448  s :     3.427448
      pz      :     1.273303  p :     3.805636
      px      :     1.269180
      py      :     1.263153
      dz2     :     0.007992  d :     0.059218
      dxz     :     0.014639
      dyz     :     0.013759
      dx2y2   :     0.008726
      dxy     :     0.014102
      f0      :     0.000271  f :     0.003240
      f+1     :     0.000327
      f-1     :     0.000363
      f+2     :     0.000385
      f-2     :     0.001252
      f+3     :     0.000310
      f-3     :     0.000332
  2 H s       :     0.838596  s :     0.838596
      pz      :     0.008347  p :     0.021970
      px      :     0.007863
      py      :     0.005760
  3 H s       :     0.798391  s :     0.798391
      pz      :     0.006923  p :     0.022857
      px      :     0.007820
      py      :     0.008114
  4 H s       :     0.798558  s :     0.798558
      pz      :     0.007276  p :     0.022863
      px      :     0.007379
      py      :     0.008208
  5 H s       :     0.698947  s :     0.698947
      pz      :     0.009621  p :     0.033141
      px      :     0.011857
      py      :     0.011663
  6 H s       :     0.696773  s :     0.696773
      pz      :     0.011504  p :     0.033380
      px      :     0.010012
      py      :     0.011865
  7 H s       :     0.704061  s :     0.704061
      pz      :     0.017658  p :     0.048693
      px      :     0.016454
      py      :     0.014581
  8 Pbs       :     3.937352  s :     3.937352
      pz      :     2.354198  p :     7.015453
      px      :     2.346342
      py      :     2.314913
      dz2     :     2.035307  d :    10.144048
      dxz     :     2.050822
      dyz     :     2.020172
      dx2y2   :     2.019916
      dxy     :     2.017833
      f0      :     0.010394  f :     0.071036
      f+1     :     0.012707
      f-1     :     0.008547
      f+2     :     0.011054
      f-2     :     0.012195
      f+3     :     0.008029
      f-3     :     0.008110
  9 Cls       :     5.956128  s :     5.956128
      pz      :     3.741499  p :    11.398073
      px      :     3.785360
      py      :     3.871214
      dz2     :     0.012525  d :     0.055286
      dxz     :     0.013847
      dyz     :     0.011184
      dx2y2   :     0.008790
      dxy     :     0.008941
      f0      :     0.000505  f :     0.003416
      f+1     :     0.000623
      f-1     :     0.000487
      f+2     :     0.000496
      f-2     :     0.000512
      f+3     :     0.000394
      f-3     :     0.000399
 10 Cls       :     5.957080  s :     5.957080
      pz      :     3.934989  p :    11.728494
      px      :     3.939106
      py      :     3.854399
      dz2     :     0.008401  d :     0.045208
      dxz     :     0.008712
      dyz     :     0.009759
      dx2y2   :     0.008780
      dxy     :     0.009557
      f0      :     0.000422  f :     0.002941
      f+1     :     0.000384
      f-1     :     0.000396
      f+2     :     0.000415
      f-2     :     0.000487
      f+3     :     0.000446
      f-3     :     0.000392
 11 Cls       :     5.956033  s :     5.956033
      pz      :     3.772276  p :    11.404087
      px      :     3.757043
      py      :     3.874768
      dz2     :     0.009743  d :     0.055176
      dxz     :     0.014417
      dyz     :     0.008991
      dx2y2   :     0.011379
      dxy     :     0.010645
      f0      :     0.000456  f :     0.003410
      f+1     :     0.000549
      f-1     :     0.000392
      f+2     :     0.000578
      f-2     :     0.000507
      f+3     :     0.000461
      f-3     :     0.000467


                     *******************************
                     * LOEWDIN POPULATION ANALYSIS *
                     *******************************

----------------------
LOEWDIN ATOMIC CHARGES
----------------------
   0 C :   -0.287708
   1 N :    0.092159
   2 H :    0.117826
   3 H :    0.136369
   4 H :    0.136156
   5 H :    0.196338
   6 H :    0.195225
   7 H :    0.108440
   8 Pb:    0.309643
   9 Cl:   -0.158160
  10 Cl:   -0.683405
  11 Cl:   -0.162885

-------------------------------
LOEWDIN REDUCED ORBITAL CHARGES
-------------------------------
  0 C s       :     2.858442  s :     2.858442
      pz      :     1.038200  p :     3.092030
      px      :     1.050339
      py      :     1.003492
      dz2     :     0.027995  d :     0.298871
      dxz     :     0.079580
      dyz     :     0.079866
      dx2y2   :     0.032709
      dxy     :     0.078722
      f0      :     0.005433  f :     0.038365
      f+1     :     0.003987
      f-1     :     0.005780
      f+2     :     0.004360
      f-2     :     0.007692
      f+3     :     0.005160
      f-3     :     0.005952
  1 N s       :     3.008819  s :     3.008819
      pz      :     1.243905  p :     3.713562
      px      :     1.239963
      py      :     1.229694
      dz2     :     0.019922  d :     0.174474
      dxz     :     0.042680
      dyz     :     0.044679
      dx2y2   :     0.021398
      dxy     :     0.045794
      f0      :     0.001729  f :     0.010986
      f+1     :     0.001300
      f-1     :     0.001573
      f+2     :     0.001223
      f-2     :     0.002015
      f+3     :     0.001468
      f-3     :     0.001677
  2 H s       :     0.818082  s :     0.818082
      pz      :     0.023569  p :     0.064091
      px      :     0.022435
      py      :     0.018088
  3 H s       :     0.798411  s :     0.798411
      pz      :     0.019432  p :     0.065220
      px      :     0.023690
      py      :     0.022098
  4 H s       :     0.798626  s :     0.798626
      pz      :     0.022051  p :     0.065218
      px      :     0.020823
      py      :     0.022343
  5 H s       :     0.705976  s :     0.705976
      pz      :     0.031268  p :     0.097686
      px      :     0.033194
      py      :     0.033224
  6 H s       :     0.705893  s :     0.705893
      pz      :     0.032206  p :     0.098882
      px      :     0.032811
      py      :     0.033865
  7 H s       :     0.724583  s :     0.724583
      pz      :     0.061357  p :     0.166978
      px      :     0.056701
      py      :     0.048920
  8 Pbs       :     3.819650  s :     3.819650
      pz      :     2.461448  p :     7.277249
      px      :     2.445870
      py      :     2.369932
      dz2     :     2.093691  d :    10.460445
      dxz     :     2.187650
      dyz     :     2.060923
      dx2y2   :     2.065591
      dxy     :     2.052590
      f0      :     0.018076  f :     0.133012
      f+1     :     0.027781
      f-1     :     0.014416
      f+2     :     0.022782
      f-2     :     0.024859
      f+3     :     0.011980
      f-3     :     0.013118
  9 Cls       :     5.780574  s :     5.780574
      pz      :     3.721777  p :    11.304367
      px      :     3.751698
      py      :     3.830892
      dz2     :     0.015868  d :     0.068931
      dxz     :     0.020462
      dyz     :     0.014022
      dx2y2   :     0.008736
      dxy     :     0.009842
      f0      :     0.000499  f :     0.004288
      f+1     :     0.001075
      f-1     :     0.000660
      f+2     :     0.000536
      f-2     :     0.000715
      f+3     :     0.000388
      f-3     :     0.000416
 10 Cls       :     5.926946  s :     5.926946
      pz      :     3.923379  p :    11.705490
      px      :     3.928871
      py      :     3.853240
      dz2     :     0.008516  d :     0.047807
      dxz     :     0.009001
      dyz     :     0.010744
      dx2y2   :     0.009097
      dxy     :     0.010448
      f0      :     0.000461  f :     0.003162
      f+1     :     0.000385
      f-1     :     0.000399
      f+2     :     0.000439
      f-2     :     0.000579
      f+3     :     0.000504
      f-3     :     0.000395
 11 Cls       :     5.780381  s :     5.780381
      pz      :     3.740631  p :    11.309341
      px      :     3.735307
      py      :     3.833404
      dz2     :     0.009306  d :     0.068877
      dxz     :     0.022723
      dyz     :     0.009791
      dx2y2   :     0.014645
      dxy     :     0.012413
      f0      :     0.000605  f :     0.004285
      f+1     :     0.000592
      f-1     :     0.000395
      f+2     :     0.000910
      f-2     :     0.000675
      f+3     :     0.000522
      f-3     :     0.000586


                      *****************************
                      * MAYER POPULATION ANALYSIS *
                      *****************************

  NA   - Mulliken gross atomic population
  ZA   - Total nuclear charge
  QA   - Mulliken gross atomic charge
  VA   - Mayer's total valence
  BVA  - Mayer's bonded valence
  FA   - Mayer's free valence

  ATOM       NA         ZA         QA         VA         BVA        FA
  0 C      6.2530     6.0000    -0.2530     3.8542     3.7411     0.1131
  1 N      7.2955     7.0000    -0.2955     3.3606     3.2196     0.1411
  2 H      0.8606     1.0000     0.1394     0.9636     0.9444     0.0192
  3 H      0.8212     1.0000     0.1788     0.9797     0.9618     0.0180
  4 H      0.8214     1.0000     0.1786     0.9795     0.9615     0.0180
  5 H      0.7321     1.0000     0.2679     0.9425     0.9223     0.0203
  6 H      0.7302     1.0000     0.2698     0.9413     0.9213     0.0200
  7 H      0.7528     1.0000     0.2472     1.0996     1.0775     0.0220
  8 Pb    21.1679    22.0000     0.8321     2.2383     1.8693     0.3690
  9 Cl    17.4129    17.0000    -0.4129     1.2342     0.9647     0.2695
 10 Cl    17.7337    17.0000    -0.7337     0.7113     0.4636     0.2477
 11 Cl    17.4187    17.0000    -0.4187     1.2248     0.9558     0.2690

  Mayer bond orders larger than 0.1
B(  0-C ,  1-N ) :   0.8758 B(  0-C ,  2-H ) :   0.9460 B(  0-C ,  3-H ) :   0.9454 
B(  0-C ,  4-H ) :   0.9457 B(  1-N ,  5-H ) :   0.8774 B(  1-N ,  6-H ) :   0.8775 
B(  1-N ,  7-H ) :   0.6629 B(  7-H , 10-Cl) :   0.4118 B(  8-Pb,  9-Cl) :   0.9223 
B(  8-Pb, 11-Cl) :   0.9134 


-------
TIMINGS
-------

Total time                :  446.924 sec
Integral trafo            :    2.009 sec (  0.4%)
I/O of integrals          :    0.104 sec (  0.0%)
K(i,j) Operators          :    5.958 sec (  1.3%)
T(i,j) pair energies      :    1.134 sec (  0.3%)
V-calculation             :    0.012 sec (  0.0%)
V**(-1/2)                 :    0.027 sec (  0.0%)
Gamma(ia|P)               :    5.352 sec (  1.2%)
Gamma-Trafo               :    0.742 sec (  0.2%)
D(virtual)                :    2.366 sec (  0.5%)
D(internal)               :    3.955 sec (  0.9%)
W(virtual)                :    4.760 sec (  1.1%)
W(internal)               :   13.519 sec (  3.0%)
L(virtual)                :    4.250 sec (  1.0%)
L(internal)               :    0.208 sec (  0.0%)
G(D)                      :   10.703 sec (  2.4%)
G(Z)                      :   11.052 sec (  2.5%)
Z-Vector Solution         :  296.349 sec ( 66.3%)
Z-Vector Solution         :  296.349 sec ( 66.3%)
3-Index Derivative 
+ Separable RIJ part      :    3.309 sec (  0.7%)
2-Index Derivative 
+ Separable RIJ part      :    0.026 sec (  0.0%)
Separable Gradient (COSX) :   78.775 sec ( 17.6%)


---------------------------------------
MP2 TOTAL ENERGY:    -1669.523103008 Eh
---------------------------------------

The final MP2 gradient
  0:  -0.00320636  -0.00080624  -0.00354502
  1:  -0.00411263   0.05293577  -0.00830748
  2:   0.00221952  -0.00160203   0.00255415
  3:  -0.00121917   0.00297556   0.00618927
  4:   0.00623427   0.00321526  -0.00064391
  5:  -0.01306841  -0.01741126   0.00275017
  6:   0.00157032  -0.01602450  -0.01139154
  7:   0.01792650  -0.03705172   0.01910313
  8:  -0.00108741   0.00903265   0.00041404
  9:   0.00752892  -0.00336895  -0.00868833
 10:  -0.00653264   0.01264251  -0.00725033
 11:  -0.00747910  -0.00501207   0.00895049

-----------------------------------
NORM OF THE MP2 GRADIENT:  0.081217
-----------------------------------

Entering the calculation of the dispersion correction...

Checking the input atom types...

Done


-------------------------------------------------------------------------------
                          DFT DISPERSION CORRECTION                            
                                                                               
                                DFTD3 V2.1  Rev 6                               
                          USING Becke-Johnson damping                          
-------------------------------------------------------------------------------
The B2PLYP functional is recognized
Active option DFTDOPT                   ...         4   

molecular C6(AA) [au] = 4942.332585 


            DFT-D V3
 parameters
 s6 scaling factor         :     0.6400 
 a1 scaling factor         :     0.3065 
 s8 scaling factor         :     0.9147 
 a2 scaling factor         :     5.0570 
 ad hoc parameters k1-k3   :    16.0000     1.3333    -4.0000 

 Edisp/kcal,au: -6.069006265217  -0.009671576078 
 E6   /kcal   :  -2.900619114 
 E8   /kcal   :  -3.168387151 
 % E8         :  52.206028673 

-------------------------   ----------------
Dispersion correction           -0.009671576
-------------------------   ----------------


-------------------------   --------------------
FINAL SINGLE POINT ENERGY     -1669.532774583975
-------------------------   --------------------


                            ***************************************
                            *     ORCA property calculations      *
                            ***************************************


  WARNING: The energy has been calculated at the MP2 level but the densities
           used in the property calculations are still SCF densities
           MP2 response densities have not been calculated 
           use %mp2 Density relaxed end
           or  %mp2 Density unrelaxed end

                                    ---------------------
                                    Active property flags
                                    ---------------------
   (+) Dipole Moment


------------------------------------------------------------------------------
                       ORCA ELECTRIC PROPERTIES CALCULATION
------------------------------------------------------------------------------

Dipole Moment Calculation                       ... on
Quadrupole Moment Calculation                   ... off
Polarizability Calculation                      ... off
GBWName                                         ... PbMACl3_mp2_md2_5.orca.gbw
Electron density file                           ... PbMACl3_mp2_md2_5.orca.scfp.tmp

-------------
DIPOLE MOMENT
-------------
                                X             Y             Z
Electronic contribution:    -26.31012    -170.86343     -22.81146
Nuclear contribution   :     28.90276     167.54352      25.45201
                        -----------------------------------------
Total Dipole Moment    :      2.59263      -3.31991       2.64055
                        -----------------------------------------
Magnitude (a.u.)       :      4.97152
Magnitude (Debye)      :     12.63660


                         *** MP2 UNRELAXED DENSITY ***

------------------------------------------------------------------------------
                       ORCA ELECTRIC PROPERTIES CALCULATION
------------------------------------------------------------------------------

Dipole Moment Calculation                       ... on
Quadrupole Moment Calculation                   ... off
Polarizability Calculation                      ... off
GBWName                                         ... PbMACl3_mp2_md2_5.orca.gbw
Electron density file                           ... PbMACl3_mp2_md2_5.orca.pmp2ur

-------------
DIPOLE MOMENT
-------------
                                X             Y             Z
Electronic contribution:    -26.32620    -170.83723     -22.82787
Nuclear contribution   :     28.90276     167.54352      25.45201
                        -----------------------------------------
Total Dipole Moment    :      2.57655      -3.29371       2.62414
                        -----------------------------------------
Magnitude (a.u.)       :      4.93693
Magnitude (Debye)      :     12.54867


                           *** MP2 RELAXED DENSITY ***

------------------------------------------------------------------------------
                       ORCA ELECTRIC PROPERTIES CALCULATION
------------------------------------------------------------------------------

Dipole Moment Calculation                       ... on
Quadrupole Moment Calculation                   ... off
Polarizability Calculation                      ... off
GBWName                                         ... PbMACl3_mp2_md2_5.orca.gbw
Electron density file                           ... PbMACl3_mp2_md2_5.orca.pmp2re

-------------
DIPOLE MOMENT
-------------
                                X             Y             Z
Electronic contribution:    -26.37312    -170.77174     -22.87667
Nuclear contribution   :     28.90276     167.54352      25.45201
                        -----------------------------------------
Total Dipole Moment    :      2.52963      -3.22822       2.57535
                        -----------------------------------------
Magnitude (a.u.)       :      4.84281
Magnitude (Debye)      :     12.30945


Timings for individual modules:

Sum of individual times         ...      746.574 sec (=  12.443 min)
GTO integral calculation        ...        3.677 sec (=   0.061 min)   0.5 %
SCF iterations                  ...      294.836 sec (=   4.914 min)  39.5 %
MP2 module                      ...      448.061 sec (=   7.468 min)  60.0 %
                             ****ORCA TERMINATED NORMALLY****
TOTAL RUN TIME: 0 days 0 hours 12 minutes 27 seconds 973 msec
