
                                 *****************
                                 * O   R   C   A *
                                 *****************

           --- An Ab Initio, DFT and Semiempirical electronic structure package ---

                  #######################################################
                  #                        -***-                        #
                  #  Department of molecular theory and spectroscopy    #
                  #              Directorship: Frank Neese              #
                  # Max Planck Institute for Chemical Energy Conversion #
                  #                  D-45470 Muelheim/Ruhr              #
                  #                       Germany                       #
                  #                                                     #
                  #                  All rights reserved                #
                  #                        -***-                        #
                  #######################################################


                         Program Version 3.0.3 - RELEASE   -


 With contributions from (in alphabetic order):
   Ute Becker             : Parallelization
   Dmytro Bykov           : SCF Hessian
   Dmitry Ganyushin       : Spin-Orbit,Spin-Spin,Magnetic field MRCI
   Andreas Hansen         : Spin unrestricted coupled pair/coupled cluster methods
   Dimitrios Liakos       : Extrapolation schemes; parallel MDCI
   Robert Izsak           : Overlap fitted RIJCOSX, COSX-SCS-MP3
   Christian Kollmar      : KDIIS, OOCD, Brueckner-CCSD(T), CCSD density
   Simone Kossmann        : Meta GGA functionals, TD-DFT gradient, OOMP2, MP2 Hessian
   Taras Petrenko         : DFT Hessian,TD-DFT gradient, ASA and ECA modules, normal mode analysis, Resonance Raman, ABS, FL, XAS/XES, NRVS
   Christoph Reimann      : Effective Core Potentials
   Michael Roemelt        : Restricted open shell CIS
   Christoph Riplinger    : Improved optimizer, TS searches, QM/MM, DLPNO-CCSD
   Barbara Sandhoefer     : DKH picture change effects
   Igor Schapiro          : Molecular dynamics
   Kantharuban Sivalingam : CASSCF convergence, NEVPT2
   Boris Wezisla          : Elementary symmetry handling
   Frank Wennmohs         : Technical directorship


 We gratefully acknowledge several colleagues who have allowed us to
 interface, adapt or use parts of their codes:
   Stefan Grimme, W. Hujo, H. Kruse, T. Risthaus : VdW corrections, initial TS optimization,
                                                   DFT functionals, gCP
   Ed Valeev                                     : LibInt (2-el integral package), F12 methods
   Garnet Chan, S. Sharma, R. Olivares           : DMRG
   Ulf Ekstrom                                   : XCFun DFT Library
   Mihaly Kallay                                 : mrcc  (arbitrary order and MRCC methods)
   Andreas Klamt, Michael Diedenhofen            : otool_cosmo (COSMO solvation model)
   Frank Weinhold                                : gennbo (NPA and NBO analysis)
   Christopher J. Cramer and Donald G. Truhlar   : smd solvation model


 Your calculation uses the libint2 library for the computation of 2-el integrals
 For citations please refer to: http://libint.valeyev.net

 This ORCA versions uses:
   CBLAS   interface :  Fast vector & matrix operations
   LAPACKE interface :  Fast linear algebra routines
   SCALAPACK package :  Parallel linear algebra routines


Your calculation utilizes the basis: Ahlrichs-TZV
Cite in your paper:
H - Kr: A. Schaefer, H. Horn and R. Ahlrichs, J. Chem. Phys. 97, 2571 (1992).

The def2-TZV basis will be loaded
Cite in your paper:
 	F. Weigend, R. Ahlrichs, Phys. Chem. Chem. Phys. 2005, 7, 3297.

Your calculation utilizes the atom-pairwise dispersion correction
with the Becke-Johnson damping scheme (D3BJ)
Cite in your paper:
S.Grimme, S.Ehrlich, L.Goerigk, J Comput Chem, (2011), 32, 1456–1465 
S.Grimme, J.Antony, S.Ehrlich and H.Krieg, J.Chem.Phys., 132, (2010), 154104 
   

================================================================================
                                        WARNINGS
                       Please study these warnings very carefully!
================================================================================

WARNING: The RI method has been chosen with no auxiliary basis (AUX or GTOAUX in BASIS block)
        Standard TZV/J expansion basis used (GTOAUX=TZV_J)

Now building the actual basis set
cite the ECPs for Pb [SD(60,MDF)] as follows:
  B. Metz, H. Stoll, M. Dolg, J. Chem. Phys. 113, 2563 (2000).

ECP parameters for Pb [SD(60,MDF)] have been obtained from:
  pseudopotential library of the Stuttgart/Cologne group
  http://www.theochem.uni-stuttgart.de/pseudopotentials/

cite the ECP basis sets for Pb [DEF2-TZVP] as follows:
  F. Weigend, R. Ahlrichs; Phys. Chem. Chem. Phys. 7, 3297(2005).

ECP basis sets for Pb [DEF2-TZVP] have been obtained from:
  Turbomole basis set library
  ftp://ftp.chemie.uni-karlsruhe.de/pub/basen/



INFO   : the flag for use of LIBINT has been found!

================================================================================
                                       INPUT FILE
================================================================================
NAME = PbMACl3_mp2_md_0.orca
|  1> ! RIJCOSX RI-B2PLYP D3BJ def2-TZVP ECP{def2-TZVP} TIGHTSCF Grid5 FinalGrid6 SlowConv MORead
|  2> %method
|  3>  RunTyp Gradient
|  4>  end
|  5> %maxcore 1000
|  6> %moinp "previous.gbw"
|  7> *xyz 0 1
|  8> C -0.743285 -0.760097 -1.315690 
|  9> N -0.792355 0.411053 -0.422831 
| 10> H -0.189553 0.259651 0.374234 
| 11> H -1.739450 0.557781 -0.100655 
| 12> H -0.482051 1.232710 -0.923558 
| 13> H -1.121900 -1.649220 -0.807955 
| 14> H 0.276707 -0.962556 -1.644700 
| 15> H -1.350580 -0.577428 -2.201820 
| 16> Pb -2.951850 -2.846840 -2.809090 
| 17> Cl -0.570757 -3.352070 -3.380400 
| 18> Cl -3.527150 -0.528350 -3.375630 
| 19> Cl -3.353410 -3.306920 -0.379140 
| 20> *
| 21> 
| 22>                          ****END OF INPUT****
================================================================================

                     *******************************
                     * Energy+Gradient Calculation *
                     *******************************

---------------------------------
CARTESIAN COORDINATES (ANGSTROEM)
---------------------------------
  C     -0.743285   -0.760097   -1.315690
  N     -0.792355    0.411053   -0.422831
  H     -0.189553    0.259651    0.374234
  H     -1.739450    0.557781   -0.100655
  H     -0.482051    1.232710   -0.923558
  H     -1.121900   -1.649220   -0.807955
  H      0.276707   -0.962556   -1.644700
  H     -1.350580   -0.577428   -2.201820
  Pb    -2.951850   -2.846840   -2.809090
  Cl    -0.570757   -3.352070   -3.380400
  Cl    -3.527150   -0.528350   -3.375630
  Cl    -3.353410   -3.306920   -0.379140

----------------------------
CARTESIAN COORDINATES (A.U.)
----------------------------
  NO LB      ZA    FRAG    MASS        X           Y           Z
   0 C     6.0000    0    12.011         -1.404605089451658         -1.436375165215142         -2.486293777138852
   1 N     7.0000    0    14.007         -1.497333950843173          0.776777596526732         -0.799034790932057
   2 H     1.0000    0     1.008         -0.358203257863175          0.490669280398787          0.707199770001886
   3 H     1.0000    0     1.008         -3.287084123649321          1.054053332704730         -0.190210384009844
   4 H     1.0000    0     1.008         -0.910944372582873          2.329484302546066         -1.745271688792043
   5 H     1.0000    0     1.008         -2.120083749646252         -3.116574134585607         -1.526813678532345
   6 H     1.0000    0     1.008          0.522900449338948         -1.818967228562704         -3.108032572460283
   7 H     1.0000    0     1.008         -2.552226321951364         -1.091180782057880         -4.160836796190490
   8 Pb   22.0000*   0   207.200  -5.578188088415446  -5.379747947092376  -5.308410785536848
   9 Cl   17.0000    0    35.453         -1.078574419018492         -6.334494281733410         -6.388030223107399
  10 Cl   17.0000    0    35.453         -6.665347533260342         -0.998436802857293         -6.379016229448595
  11 Cl   17.0000    0    35.453         -6.337026514752864         -6.249173146786865         -0.716470766414903
* core charge reduced due to ECP

--------------------------------
INTERNAL COORDINATES (ANGSTROEM)
--------------------------------
 C      0   0   0   0.000000     0.000     0.000
 N      1   0   0   1.473498     0.000     0.000
 H      2   1   0   1.010745   109.811     0.000
 H      2   1   3   1.011096   109.853   239.868
 H      2   1   3   1.011008   109.610   119.992
 H      1   2   3   1.091643   110.731    62.821
 H      1   2   3   1.090697   111.190   302.411
 H      1   2   3   1.089680   109.935   183.014
 Pb     8   1   2   2.843075   110.718   224.747
 Cl     9   8   1   2.500251    70.957   287.331
 Cl     9   8   1   2.455063    55.072   152.325
 Cl     9   8   1   2.505510    91.701    37.608

---------------------------
INTERNAL COORDINATES (A.U.)
---------------------------
 C      0   0   0   0.000000     0.000     0.000
 N      1   0   0   2.784508     0.000     0.000
 H      2   1   0   1.910031   109.811     0.000
 H      2   1   3   1.910695   109.853   239.868
 H      2   1   3   1.910527   109.610   119.992
 H      1   2   3   2.062906   110.731    62.821
 H      1   2   3   2.061119   111.190   302.411
 H      1   2   3   2.059196   109.935   183.014
 Pb     8   1   2   5.372632   110.718   224.747
 Cl     9   8   1   4.724790    70.957   287.331
 Cl     9   8   1   4.639396    55.072   152.325
 Cl     9   8   1   4.734728    91.701    37.608

---------------------
BASIS SET INFORMATION
---------------------
There are 5 groups of distinct atoms

 Group   1 Type C   : 11s6p2d1f contracted to 5s3p2d1f pattern {62111/411/11/1}
 Group   2 Type N   : 11s6p2d1f contracted to 5s3p2d1f pattern {62111/411/11/1}
 Group   3 Type H   : 5s1p contracted to 3s1p pattern {311/1}
 Group   4 Type Pb  : 10s9p8d2f contracted to 6s5p3d2f pattern {421111/33111/611/11}
 Group   5 Type Cl  : 14s9p3d1f contracted to 5s5p2d1f pattern {73211/51111/21/1}

Atom   0C    basis set group =>   1
Atom   1N    basis set group =>   2
Atom   2H    basis set group =>   3
Atom   3H    basis set group =>   3
Atom   4H    basis set group =>   3
Atom   5H    basis set group =>   3
Atom   6H    basis set group =>   3
Atom   7H    basis set group =>   3
Atom   8Pb   basis set group =>   4
Atom   9Cl   basis set group =>   5
Atom  10Cl   basis set group =>   5
Atom  11Cl   basis set group =>   5
-------------------------------
AUXILIARY BASIS SET INFORMATION
-------------------------------
There are 5 groups of distinct atoms

 Group   1 Type C   : 12s5p4d2f1g contracted to 6s4p3d1f1g pattern {711111/2111/211/2/1}
 Group   2 Type N   : 12s5p4d2f1g contracted to 6s4p3d1f1g pattern {711111/2111/211/2/1}
 Group   3 Type H   : 5s2p1d contracted to 3s1p1d pattern {311/2/1}
 Group   4 Type Pb  : 31s12p8d6f3g contracted to 31s12p8d6f3g pattern {1111111111111111111111111111111/111111111111/11111111/111111/111}
 Group   5 Type Cl  : 14s5p5d2f1g contracted to 8s4p3d1f1g pattern {71111111/2111/311/2/1}

Atom   0C    basis set group =>   1
Atom   1N    basis set group =>   2
Atom   2H    basis set group =>   3
Atom   3H    basis set group =>   3
Atom   4H    basis set group =>   3
Atom   5H    basis set group =>   3
Atom   6H    basis set group =>   3
Atom   7H    basis set group =>   3
Atom   8Pb   basis set group =>   4
Atom   9Cl   basis set group =>   5
Atom  10Cl   basis set group =>   5
Atom  11Cl   basis set group =>   5

-------------------------
ECP PARAMETER INFORMATION
-------------------------

 Group 1, Type Pb ECP SD(60,MDF) (replacing 60 core electrons, lmax=5)

Atom   8Pb   ECP group =>   1


------------------------------------------------------------------------------
                           ORCA GTO INTEGRAL CALCULATION
                           -- RI-GTO INTEGRALS CHOSEN --
------------------------------------------------------------------------------

                         BASIS SET STATISTICS AND STARTUP INFO

Gaussian basis set:
 # of primitive gaussian shells          ...  186
 # of primitive gaussian functions       ...  420
 # of contracted shells                  ...  101
 # of contracted basis functions         ...  259
 Highest angular momentum                ...    3
 Maximum contraction depth               ...    7
Auxiliary gaussian basis set:
 # of primitive gaussian shells          ...  237
 # of primitive gaussian functions       ...  643
 # of contracted shells                  ...  171
 # of contracted aux-basis functions     ...  493
 Highest angular momentum                ...    4
 Maximum contraction depth               ...    7
Ratio of auxiliary to basis functions    ...  1.90
Integral package used                  ... LIBINT
 One Electron integrals                  
   ECP integrals                         ... done
 Ordering auxiliary basis shells         ... done
 Integral threshhold             Thresh  ...  2.500e-11
 Primitive cut-off               TCut    ...  2.500e-12
 Pre-screening matrix                    ... done
 Shell pair data                         ... 
 Ordering of the shell pairs             ... done (   0.001 sec) 4356 of 5151 pairs
 Determination of significant pairs      ... done (   0.000 sec)
 Creation of shell pair data             ... done (   0.001 sec)
 Storage of shell pair data              ... done (   0.000 sec)
 Shell pair data done in (   0.002 sec)
 Computing two index integrals           ... done
 Cholesky decomposition of the V-matrix  ... done


Timings:
 Total evaluation time                   ...   0.389 sec (  0.006 min)
 One electron matrix time                ...   0.203 sec (  0.003 min) = 52.1%
 Schwartz matrix evaluation time         ...   0.128 sec (  0.002 min) = 32.8%
 Two index repulsion integral time       ...   0.004 sec (  0.000 min) =  1.0%
 Cholesky decomposition of V             ...   0.034 sec (  0.001 min) =  8.8%
 Three index repulsion integral time     ...   0.000 sec (  0.000 min) =  0.0%

-------------------------------------------------------------------------------
                                 ORCA SCF
-------------------------------------------------------------------------------

------------
SCF SETTINGS
------------
Hamiltonian:
 Density Functional     Method          .... DFT(GTOs)
 Exchange Functional    Exchange        .... B88
   X-Alpha parameter    XAlpha          ....  0.666667
   Becke's b parameter  XBeta           ....  0.004200
 Correlation Functional Correlation     .... LYP
 LDA part of GGA corr.  LDAOpt          .... VWN-3
 Gradients option       PostSCFGGA      .... off
 Hybrid DFT is turned on
   Fraction HF Exchange ScalHFX         ....  0.530000
   Scaling of DF-GGA-X  ScalDFX         ....  0.470000
   Scaling of DF-GGA-C  ScalDFC         ....  0.730000
   Scaling of DF-LDA-C  ScalLDAC        ....  0.730000
   Perturbative correction              ....  0.270000
 RI-approximation to the Coulomb term is turned on
   Number of auxiliary basis functions  .... 493
   RIJ-COSX (HFX calculated with COS-X)).... on


General Settings:
 Integral files         IntName         .... PbMACl3_mp2_md_0.orca
 Hartree-Fock type      HFTyp           .... RHF
 Total Charge           Charge          ....    0
 Multiplicity           Mult            ....    1
 Number of Electrons    NEL             ....   92
 Basis Dimension        Dim             ....  259
 Nuclear Repulsion      ENuc            ....    585.7776659556 Eh

Convergence Acceleration:
 DIIS                   CNVDIIS         .... on
   Start iteration      DIISMaxIt       ....     0
   Startup error        DIISStart       ....  0.200000
   # of expansion vecs  DIISMaxEq       ....     5
   Bias factor          DIISBfac        ....   1.050
   Max. coefficient     DIISMaxC        ....  10.000
 Newton-Raphson         CNVNR           .... off
 SOSCF                  CNVSOSCF        .... on
   Start iteration      SOSCFMaxIt      ....   150
   Startup grad/error   SOSCFStart      ....  0.001000
 Level Shifting         CNVShift        .... on
   Level shift para.    LevelShift      ....    0.2500
   Turn off err/grad.   ShiftErr        ....    0.0000
 Zerner damping         CNVZerner       .... off
 Static damping         CNVDamp         .... on
   Fraction old density DampFac         ....    0.8500
   Max. Damping (<1)    DampMax         ....    0.9800
   Min. Damping (>=0)   DampMin         ....    0.0000
   Turn off err/grad.   DampErr         ....    0.0300
 Fernandez-Rico         CNVRico         .... off

SCF Procedure:
 Maximum # iterations   MaxIter         ....   125
 SCF integral mode      SCFMode         .... Direct
   Integral package                     .... LIBINT
 Reset frequeny         DirectResetFreq ....    20
 Integral Threshold     Thresh          ....  2.500e-11 Eh
 Primitive CutOff       TCut            ....  2.500e-12 Eh

Convergence Tolerance:
 Convergence Check Mode ConvCheckMode   .... Total+1el-Energy
 Energy Change          TolE            ....  1.000e-08 Eh
 1-El. energy change                    ....  1.000e-05 Eh
 Orbital Gradient       TolG            ....  1.000e-05
 Orbital Rotation angle TolX            ....  1.000e-05
 DIIS Error             TolErr          ....  5.000e-07


Diagonalization of the overlap matrix:
Smallest eigenvalue                        ... 6.976e-04
Time for diagonalization                   ...    0.073 sec
Threshold for overlap eigenvalues          ... 1.000e-08
Number of eigenvalues below threshold      ... 0
Time for construction of square roots      ...    0.003 sec
Total time needed                          ...    0.076 sec

---------------------
INITIAL GUESS: MOREAD
---------------------
Guess MOs are being read from file: previous.gbw
Input geometry compatible with but different from current geometry
Input basis set matches current basis set (good)
MOs were renormalized
MOs were reorthogonalized (Schmidt)
                      ------------------
                      INITIAL GUESS DONE (   0.1 sec)
                      ------------------
-------------------
DFT GRID GENERATION
-------------------

General Integration Accuracy     IntAcc      ...  5.010
Radial Grid Type                 RadialGrid  ... Gauss-Chebyshev
Angular Grid (max. acc.)         AngularGrid ... Lebedev-434
Angular grid pruning method      GridPruning ... 3 (G Style)
Weight generation scheme         WeightScheme... Becke
Basis function cutoff            BFCut       ...    1.0000e-11
Integration weight cutoff        WCut        ...    1.0000e-14
Grids for H and He will be reduced by one unit

# of grid points (after initial pruning)     ... 115882 (   0.0 sec)
# of grid points (after weights+screening)   ... 108928 (   0.1 sec)
nearest neighbour list constructed           ...    0.0 sec
Grid point re-assignment to atoms done       ...    0.0 sec
Grid point division into batches done        ...    0.6 sec
Reduced shell lists constructed in    2.2 sec

Total number of grid points                  ...   108928
Total number of batches                      ...     1708
Average number of points per batch           ...       63
Average number of grid points per atom       ...     9077
Average number of shells per batch           ...    53.65 (53.11%)
Average number of basis functions per batch  ...   140.84 (54.38%)
Average number of large shells per batch     ...    40.48 (75.45%)
Average number of large basis fcns per batch ...   103.61 (73.57%)
Maximum spatial batch extension              ...  35.48, 33.20, 30.99 au
Average spatial batch extension              ...   2.40,  2.42,  2.45 au

Time for grid setup =    2.394 sec

--------------------
COSX GRID GENERATION
--------------------

General Integration Accuracy     IntAcc      ...  3.340
Radial Grid Type                 RadialGrid  ... Gauss-Chebyshev
Angular Grid (max. acc.)         AngularGrid ... Lebedev-50
Angular grid pruning method      GridPruning ... 3 (G Style)
Weight generation scheme         WeightScheme... Becke
Basis function cutoff            BFCut       ...    1.0000e-11
Integration weight cutoff        WCut        ...    1.0000e-14
Grids for H and He will be reduced by one unit

# of grid points (after initial pruning)     ...   6578 (   0.0 sec)
# of grid points (after weights+screening)   ...   6267 (   0.0 sec)
nearest neighbour list constructed           ...    0.0 sec
Grid point re-assignment to atoms done       ...    0.0 sec
Grid point division into batches done        ...    0.0 sec
Reduced shell lists constructed in    0.1 sec

Total number of grid points                  ...     6267
Total number of batches                      ...      105
Average number of points per batch           ...       59
Average number of grid points per atom       ...      522
Average number of shells per batch           ...    65.41 (64.76%)
Average number of basis functions per batch  ...   174.78 (67.48%)
Average number of large shells per batch     ...    50.66 (77.46%)
Average number of large basis fcns per batch ...   131.96 (75.50%)
Maximum spatial batch extension              ...  32.21, 29.75, 30.57 au
Average spatial batch extension              ...   6.32,  6.39,  6.37 au

Overlap Fitting                  UseSFitting ... on
Constructing numerical overlap ... done (      0.1 sec)
Inverting numerical overlap    ... done (      0.0 sec)
Obtaining analytic overlap     ... done (      0.0 sec)
Final contraction and storage  ... done (      0.0 sec)


General Integration Accuracy     IntAcc      ...  3.670
Radial Grid Type                 RadialGrid  ... Gauss-Chebyshev
Angular Grid (max. acc.)         AngularGrid ... Lebedev-50
Angular grid pruning method      GridPruning ... 3 (G Style)
Weight generation scheme         WeightScheme... Becke
Basis function cutoff            BFCut       ...    1.0000e-11
Integration weight cutoff        WCut        ...    1.0000e-14
Grids for H and He will be reduced by one unit

# of grid points (after initial pruning)     ...   8124 (   0.0 sec)
# of grid points (after weights+screening)   ...   7729 (   0.0 sec)
nearest neighbour list constructed           ...    0.0 sec
Grid point re-assignment to atoms done       ...    0.0 sec
Grid point division into batches done        ...    0.0 sec
Reduced shell lists constructed in    0.1 sec

Total number of grid points                  ...     7729
Total number of batches                      ...      127
Average number of points per batch           ...       60
Average number of grid points per atom       ...      644
Average number of shells per batch           ...    64.82 (64.18%)
Average number of basis functions per batch  ...   172.80 (66.72%)
Average number of large shells per batch     ...    50.17 (77.40%)
Average number of large basis fcns per batch ...   130.20 (75.35%)
Maximum spatial batch extension              ...  31.05, 31.93, 31.81 au
Average spatial batch extension              ...   5.81,  5.82,  6.00 au

Overlap Fitting                  UseSFitting ... on
Constructing numerical overlap ... done (      0.1 sec)
Inverting numerical overlap    ... done (      0.0 sec)
Obtaining analytic overlap     ... done (      0.0 sec)
Final contraction and storage  ... done (      0.0 sec)


General Integration Accuracy     IntAcc      ...  4.010
Radial Grid Type                 RadialGrid  ... Gauss-Chebyshev
Angular Grid (max. acc.)         AngularGrid ... Lebedev-110
Angular grid pruning method      GridPruning ... 3 (G Style)
Weight generation scheme         WeightScheme... Becke
Basis function cutoff            BFCut       ...    1.0000e-11
Integration weight cutoff        WCut        ...    1.0000e-14
Grids for H and He will be reduced by one unit

# of grid points (after initial pruning)     ...  15170 (   0.0 sec)
# of grid points (after weights+screening)   ...  14452 (   0.0 sec)
nearest neighbour list constructed           ...    0.0 sec
Grid point re-assignment to atoms done       ...    0.0 sec
Grid point division into batches done        ...    0.0 sec
Reduced shell lists constructed in    0.2 sec

Total number of grid points                  ...    14452
Total number of batches                      ...      231
Average number of points per batch           ...       62
Average number of grid points per atom       ...     1204
Average number of shells per batch           ...    61.18 (60.58%)
Average number of basis functions per batch  ...   162.71 (62.82%)
Average number of large shells per batch     ...    47.00 (76.83%)
Average number of large basis fcns per batch ...   122.23 (75.12%)
Maximum spatial batch extension              ...  34.93, 28.48, 34.29 au
Average spatial batch extension              ...   4.79,  4.79,  5.11 au

Overlap Fitting                  UseSFitting ... on
Constructing numerical overlap ... done (      0.1 sec)
Inverting numerical overlap    ... done (      0.0 sec)
Obtaining analytic overlap     ... done (      0.0 sec)
Final contraction and storage  ... done (      0.0 sec)

Time for X-Grid setup             =    0.900 sec
--------------
SCF ITERATIONS
--------------
ITER       Energy         Delta-E        Max-DP      RMS-DP      [F,P]     Damp
               ***  Starting incremental Fock matrix formation  ***
  0  -1662.9431361040   0.000000000000 0.14452395  0.00258122  0.4382313 0.8500
  1  -1663.8444454709  -0.901309366853 0.12811665  0.00223705  0.2986164 0.8500
                               ***Turning on DIIS***
  2  -1664.5702988833  -0.725853412396 0.10398924  0.00188999  0.2407609 0.8500
  3  -1665.1775129950  -0.607214111677 0.08309894  0.00159082  0.2143450 0.8500
  4  -1665.7016865018  -0.524173506850 0.06816224  0.00135348  0.1885691 0.8500
  5  -1666.1549944353  -0.453307933462 0.05710104  0.00116248  0.1645205 0.8500
  6  -1666.5479541810  -0.392959745757 0.04847772  0.00100101  0.1425063 0.8500
  7  -1666.8895291741  -0.341574993046 0.04154217  0.00085948  0.1227176 0.8500
  8  -1667.1862282031  -0.296699029039 0.03573559  0.00073506  0.1052670 0.8500
  9  -1667.4431588503  -0.256930647216 0.03070818  0.00062635  0.0900999 0.8500
 10  -1667.6646720437  -0.221513193380 0.02620240  0.00053281  0.0770228 0.8500
 11  -1667.8551616678  -0.190489624085 0.02226122  0.00045316  0.0657955 0.8500
 12  -1668.0187186205  -0.163556952659 0.01890170  0.00038553  0.0561744 0.8500
 13  -1668.1589661099  -0.140247489436 0.01606595  0.00032804  0.0480577 0.8500
 14  -1668.2790705574  -0.120104447452 0.01366791  0.00027905  0.0411331 0.8500
 15  -1668.3818001737  -0.102729616297 0.01162640  0.00023732  0.0351696 0.8500
 16  -1668.4695800863  -0.087779912688 0.00988489  0.00020182  0.0300480 0.8500
 17  -1668.5445257521  -0.074945665739 0.05601593  0.00114430  0.0256576 0.0000
                      *** Initiating the SOSCF procedure ***
                           *** Shutting down DIIS ***
                      *** Re-Reading the Fockian *** 
                      *** Removing any level shift *** 
ITER      Energy       Delta-E        Grad      Rot      Max-DP    RMS-DP
 18  -1668.97507446  -0.4305487084  0.000356  0.000356  0.000392  0.000009
               *** Restarting incremental Fock matrix formation ***
 19  -1668.97520759  -0.0001331320  0.000150  0.000249  0.000486  0.000009
 20  -1668.97520789  -0.0000002991  0.000137  0.000093  0.000133  0.000003
 21  -1668.97520820  -0.0000003052  0.000009  0.000036  0.000041  0.000001
 22  -1668.97520821  -0.0000000175  0.000004  0.000012  0.000013  0.000000
                  ***Gradient check signals convergence***
              ***Rediagonalizing the Fockian in SOSCF/NRSCF***

               *****************************************************
               *                     SUCCESS                       *
               *           SCF CONVERGED AFTER  23 CYCLES          *
               *****************************************************

Old exchange energy                            =    -59.230293240 Eh
New exchange energy                            =    -59.235607068 Eh
Exchange energy change after final integration =     -0.005313829 Eh
Total energy after final integration           =  -1668.980522061 Eh
Final COS-X integration done in                =    12.961 sec

----------------
TOTAL SCF ENERGY
----------------

Total Energy       :        -1668.98052206 Eh          -45415.26887 eV

Components:
Nuclear Repulsion  :          585.77766596 Eh           15939.82066 eV
Electronic Energy  :        -2254.75818802 Eh          -61355.08953 eV

One Electron Energy:        -3543.64645627 Eh          -96427.52236 eV
Two Electron Energy:         1288.88826825 Eh           35072.43283 eV

Virial components:
Potential Energy   :        -3206.92605538 Eh          -87264.89443 eV
Kinetic Energy     :         1537.94553332 Eh           41849.62556 eV
Virial Ratio       :            2.08520132


DFT components:
N(Alpha)           :       45.999987475083 electrons
N(Beta)            :       45.999987475083 electrons
N(Total)           :       91.999974950166 electrons
E(X)               :      -52.600162356723 Eh       
E(C)               :       -2.607491659718 Eh       
E(XC)              :      -55.207654016441 Eh       

---------------
SCF CONVERGENCE
---------------

  Last Energy change         ...   -1.8209e-08  Tolerance :   1.0000e-08
  Last MAX-Density change    ...    3.6138e-13  Tolerance :   1.0000e-07
  Last RMS-Density change    ...    1.7211e-15  Tolerance :   5.0000e-09
  Last Orbital Gradient      ...    1.2972e-06  Tolerance :   1.0000e-05
  Last Orbital Rotation      ...    1.7767e-06  Tolerance :   1.0000e-05

             **** THE GBW FILE WAS UPDATED (PbMACl3_mp2_md_0.orca.gbw) ****
             **** DENSITY FILE WAS UPDATED (PbMACl3_mp2_md_0.orca.scfp.tmp) ****
             **** ENERGY FILE WAS UPDATED (PbMACl3_mp2_md_0.orca.en.tmp) ****
----------------
ORBITAL ENERGIES
----------------

  NO   OCC          E(Eh)            E(eV) 
   0   2.0000    -102.832522     -2798.2152 
   1   2.0000    -102.821006     -2797.9018 
   2   2.0000    -102.819922     -2797.8723 
   3   2.0000     -15.054838      -409.6630 
   4   2.0000     -10.717649      -291.6421 
   5   2.0000      -9.840967      -267.7863 
   6   2.0000      -9.828659      -267.4514 
   7   2.0000      -9.827673      -267.4246 
   8   2.0000      -7.477825      -203.4820 
   9   2.0000      -7.476244      -203.4389 
  10   2.0000      -7.476052      -203.4337 
  11   2.0000      -7.465592      -203.1491 
  12   2.0000      -7.464658      -203.1237 
  13   2.0000      -7.463966      -203.1048 
  14   2.0000      -7.463794      -203.1002 
  15   2.0000      -7.462969      -203.0777 
  16   2.0000      -7.462783      -203.0726 
  17   2.0000      -5.756564      -156.6441 
  18   2.0000      -3.528698       -96.0207 
  19   2.0000      -3.526617       -95.9641 
  20   2.0000      -3.526431       -95.9591 
  21   2.0000      -1.232122       -33.5278 
  22   2.0000      -0.935454       -25.4550 
  23   2.0000      -0.931126       -25.3372 
  24   2.0000      -0.924239       -25.1498 
  25   2.0000      -0.917211       -24.9586 
  26   2.0000      -0.916911       -24.9504 
  27   2.0000      -0.894953       -24.3529 
  28   2.0000      -0.856960       -23.3191 
  29   2.0000      -0.835845       -22.7445 
  30   2.0000      -0.829615       -22.5750 
  31   2.0000      -0.765671       -20.8350 
  32   2.0000      -0.763971       -20.7887 
  33   2.0000      -0.645093       -17.5539 
  34   2.0000      -0.546087       -14.8598 
  35   2.0000      -0.539504       -14.6806 
  36   2.0000      -0.519184       -14.1277 
  37   2.0000      -0.368699       -10.0328 
  38   2.0000      -0.362451        -9.8628 
  39   2.0000      -0.341492        -9.2925 
  40   2.0000      -0.328478        -8.9384 
  41   2.0000      -0.326158        -8.8752 
  42   2.0000      -0.319183        -8.6854 
  43   2.0000      -0.318194        -8.6585 
  44   2.0000      -0.312877        -8.5138 
  45   2.0000      -0.236703        -6.4410 
  46   0.0000      -0.040245        -1.0951 
  47   0.0000       0.018888         0.5140 
  48   0.0000       0.029093         0.7917 
  49   0.0000       0.039845         1.0842 
  50   0.0000       0.074690         2.0324 
  51   0.0000       0.077601         2.1116 
  52   0.0000       0.088487         2.4079 
  53   0.0000       0.119366         3.2481 
  54   0.0000       0.132999         3.6191 
  55   0.0000       0.154522         4.2048 
  56   0.0000       0.168023         4.5721 
  57   0.0000       0.175100         4.7647 
  58   0.0000       0.178636         4.8609 
  59   0.0000       0.199349         5.4246 
  60   0.0000       0.220201         5.9920 
  61   0.0000       0.226616         6.1665 
  62   0.0000       0.229154         6.2356 
  63   0.0000       0.274499         7.4695 
  64   0.0000       0.303038         8.2461 
  65   0.0000       0.311328         8.4717 
  66   0.0000       0.313276         8.5247 
  67   0.0000       0.319624         8.6974 
  68   0.0000       0.326981         8.8976 
  69   0.0000       0.384302        10.4574 
  70   0.0000       0.391621        10.6565 
  71   0.0000       0.404814        11.0156 
  72   0.0000       0.427618        11.6361 
  73   0.0000       0.431508        11.7419 
  74   0.0000       0.438411        11.9298 
  75   0.0000       0.447982        12.1902 
  76   0.0000       0.456165        12.4129 
  77   0.0000       0.463765        12.6197 
  78   0.0000       0.473574        12.8866 
  79   0.0000       0.474733        12.9181 
  80   0.0000       0.481141        13.0925 
  81   0.0000       0.485487        13.2108 
  82   0.0000       0.500063        13.6074 
  83   0.0000       0.516890        14.0653 
  84   0.0000       0.531589        14.4653 
  85   0.0000       0.533722        14.5233 
  86   0.0000       0.541145        14.7253 
  87   0.0000       0.549461        14.9516 
  88   0.0000       0.566423        15.4132 
  89   0.0000       0.578757        15.7488 
  90   0.0000       0.588765        16.0211 
  91   0.0000       0.593965        16.1626 
  92   0.0000       0.600848        16.3499 
  93   0.0000       0.616748        16.7826 
  94   0.0000       0.619230        16.8501 
  95   0.0000       0.633779        17.2460 
  96   0.0000       0.660938        17.9850 
  97   0.0000       0.668918        18.2022 
  98   0.0000       0.674246        18.3472 
  99   0.0000       0.691812        18.8252 
 100   0.0000       0.707301        19.2466 
 101   0.0000       0.720815        19.6144 
 102   0.0000       0.736513        20.0415 
 103   0.0000       0.754831        20.5400 
 104   0.0000       0.804426        21.8895 
 105   0.0000       0.869704        23.6658 
 106   0.0000       0.875068        23.8118 
 107   0.0000       0.885049        24.0834 
 108   0.0000       0.923687        25.1348 
 109   0.0000       0.941216        25.6118 
 110   0.0000       0.949500        25.8372 
 111   0.0000       0.955269        25.9942 
 112   0.0000       0.966523        26.3004 
 113   0.0000       0.970037        26.3960 
 114   0.0000       0.979015        26.6404 
 115   0.0000       0.987872        26.8814 
 116   0.0000       0.999327        27.1931 
 117   0.0000       1.046974        28.4896 
 118   0.0000       1.117230        30.4014 
 119   0.0000       1.119553        30.4646 
 120   0.0000       1.130894        30.7732 
 121   0.0000       1.131999        30.8033 
 122   0.0000       1.174763        31.9669 
 123   0.0000       1.176970        32.0270 
 124   0.0000       1.185552        32.2605 
 125   0.0000       1.221462        33.2377 
 126   0.0000       1.266244        34.4562 
 127   0.0000       1.340754        36.4838 
 128   0.0000       1.355669        36.8896 
 129   0.0000       1.359612        36.9969 
 130   0.0000       1.369209        37.2581 
 131   0.0000       1.524410        41.4813 
 132   0.0000       1.545388        42.0522 
 133   0.0000       1.549626        42.1675 
 134   0.0000       1.591875        43.3171 
 135   0.0000       1.606718        43.7210 
 136   0.0000       1.717637        46.7393 
 137   0.0000       1.746096        47.5137 
 138   0.0000       1.747651        47.5560 
 139   0.0000       1.822641        49.5966 
 140   0.0000       1.883835        51.2618 
 141   0.0000       1.889770        51.4233 
 142   0.0000       1.926311        52.4176 
 143   0.0000       1.929705        52.5099 
 144   0.0000       1.939591        52.7790 
 145   0.0000       1.947256        52.9875 
 146   0.0000       1.974613        53.7319 
 147   0.0000       1.982595        53.9491 
 148   0.0000       1.984499        54.0010 
 149   0.0000       1.988242        54.1028 
 150   0.0000       2.013717        54.7960 
 151   0.0000       2.024754        55.0963 
 152   0.0000       2.043241        55.5994 
 153   0.0000       2.060529        56.0698 
 154   0.0000       2.088224        56.8235 
 155   0.0000       2.089522        56.8588 
 156   0.0000       2.099529        57.1311 
 157   0.0000       2.108897        57.3860 
 158   0.0000       2.124624        57.8139 
 159   0.0000       2.133046        58.0431 
 160   0.0000       2.156140        58.6716 
 161   0.0000       2.173737        59.1504 
 162   0.0000       2.176400        59.2228 
 163   0.0000       2.183104        59.4053 
 164   0.0000       2.213519        60.2329 
 165   0.0000       2.216029        60.3012 
 166   0.0000       2.223467        60.5036 
 167   0.0000       2.264966        61.6329 
 168   0.0000       2.266879        61.6849 
 169   0.0000       2.271595        61.8132 
 170   0.0000       2.274256        61.8856 
 171   0.0000       2.277643        61.9778 
 172   0.0000       2.282551        62.1114 
 173   0.0000       2.287930        62.2577 
 174   0.0000       2.291137        62.3450 
 175   0.0000       2.299836        62.5817 
 176   0.0000       2.304415        62.7063 
 177   0.0000       2.317653        63.0665 
 178   0.0000       2.324069        63.2411 
 179   0.0000       2.325349        63.2760 
 180   0.0000       2.347953        63.8911 
 181   0.0000       2.349839        63.9424 
 182   0.0000       2.380025        64.7638 
 183   0.0000       2.400987        65.3342 
 184   0.0000       2.405470        65.4562 
 185   0.0000       2.418686        65.8158 
 186   0.0000       2.427581        66.0578 
 187   0.0000       2.439730        66.3884 
 188   0.0000       2.446430        66.5708 
 189   0.0000       2.449862        66.6641 
 190   0.0000       2.457684        66.8770 
 191   0.0000       2.462832        67.0171 
 192   0.0000       2.468019        67.1582 
 193   0.0000       2.483941        67.5915 
 194   0.0000       2.506585        68.2076 
 195   0.0000       2.513778        68.4034 
 196   0.0000       2.530541        68.8595 
 197   0.0000       2.560093        69.6637 
 198   0.0000       2.583653        70.3048 
 199   0.0000       2.601442        70.7888 
 200   0.0000       2.611162        71.0533 
 201   0.0000       2.624578        71.4184 
 202   0.0000       2.642646        71.9101 
 203   0.0000       2.681430        72.9654 
 204   0.0000       2.701960        73.5241 
 205   0.0000       2.736559        74.4656 
 206   0.0000       2.769365        75.3583 
 207   0.0000       2.808315        76.4181 
 208   0.0000       2.833763        77.1106 
 209   0.0000       2.919202        79.4355 
 210   0.0000       2.922662        79.5297 
 211   0.0000       2.954948        80.4082 
 212   0.0000       3.003821        81.7381 
 213   0.0000       3.028476        82.4090 
 214   0.0000       3.130195        85.1769 
 215   0.0000       3.182277        86.5942 
 216   0.0000       3.252491        88.5048 
 217   0.0000       3.383334        92.0652 
 218   0.0000       3.525215        95.9260 
 219   0.0000       3.557894        96.8152 
 220   0.0000       3.595690        97.8437 
 221   0.0000       3.629410        98.7613 
 222   0.0000       3.840776       104.5128 
 223   0.0000       3.850805       104.7857 
 224   0.0000       3.864517       105.1589 
 225   0.0000       4.178774       113.7102 
 226   0.0000       4.191422       114.0544 
 227   0.0000       4.403818       119.8340 
 228   0.0000       4.479303       121.8880 
 229   0.0000       4.777756       130.0094 
 230   0.0000       4.781435       130.1094 
 231   0.0000       4.882809       132.8680 
 232   0.0000       4.899601       133.3249 
 233   0.0000       5.013464       136.4233 
 234   0.0000       5.021924       136.6535 
 235   0.0000       5.087383       138.4347 
 236   0.0000       5.206856       141.6858 
 237   0.0000       5.447712       148.2398 
 238   0.0000       5.454040       148.4120 
 239   0.0000       5.858322       159.4131 
 240   0.0000      11.078614       301.4644 
 241   0.0000      11.080335       301.5112 
 242   0.0000      11.097415       301.9760 
 243   0.0000      11.108443       302.2761 
 244   0.0000      11.119382       302.5738 
 245   0.0000      11.135520       303.0129 
 246   0.0000      11.218107       305.2602 
 247   0.0000      11.251121       306.1586 
 248   0.0000      11.252806       306.2044 
 249   0.0000      22.715123       618.1099 
 250   0.0000      25.235686       686.6979 
 251   0.0000      25.314122       688.8323 
 252   0.0000      25.332240       689.3253 
 253   0.0000      32.192751       876.0093 
 254   0.0000      35.624342       969.3876 
 255   0.0000      35.870777       976.0935 
 256   0.0000      35.884018       976.4538 
 257   0.0000      35.912910       977.2400 
 258   0.0000     123.674702      3365.3597 

                    ********************************
                    * MULLIKEN POPULATION ANALYSIS *
                    ********************************

-----------------------
MULLIKEN ATOMIC CHARGES
-----------------------
   0 C :   -0.354085
   1 N :   -0.272883
   2 H :    0.310250
   3 H :    0.326814
   4 H :    0.311568
   5 H :    0.193685
   6 H :    0.191715
   7 H :    0.185974
   8 Pb:    0.820437
   9 Cl:   -0.566510
  10 Cl:   -0.569673
  11 Cl:   -0.577292
Sum of atomic charges:   -0.0000000

--------------------------------
MULLIKEN REDUCED ORBITAL CHARGES
--------------------------------
  0 C s       :     3.302167  s :     3.302167
      pz      :     0.973013  p :     2.978089
      px      :     1.162490
      py      :     0.842586
      dz2     :     0.008699  d :     0.067620
      dxz     :     0.011909
      dyz     :     0.021699
      dx2y2   :     0.016794
      dxy     :     0.008519
      f0      :     0.000471  f :     0.006208
      f+1     :     0.000348
      f-1     :     0.001259
      f+2     :     0.001867
      f-2     :     0.001041
      f+3     :     0.000691
      f-3     :     0.000532
  1 N s       :     3.413793  s :     3.413793
      pz      :     1.260326  p :     3.806305
      px      :     1.280422
      py      :     1.265558
      dz2     :     0.010357  d :     0.050269
      dxz     :     0.012273
      dyz     :     0.007971
      dx2y2   :     0.011098
      dxy     :     0.008570
      f0      :     0.000167  f :     0.002516
      f+1     :     0.000270
      f-1     :     0.000358
      f+2     :     0.000840
      f-2     :     0.000390
      f+3     :     0.000391
      f-3     :     0.000100
  2 H s       :     0.655619  s :     0.655619
      pz      :     0.015978  p :     0.034130
      px      :     0.011559
      py      :     0.006593
  3 H s       :     0.639025  s :     0.639025
      pz      :     0.007486  p :     0.034162
      px      :     0.020357
      py      :     0.006319
  4 H s       :     0.654227  s :     0.654227
      pz      :     0.010097  p :     0.034205
      px      :     0.007362
      py      :     0.016746
  5 H s       :     0.782883  s :     0.782883
      pz      :     0.004950  p :     0.023432
      px      :     0.006121
      py      :     0.012361
  6 H s       :     0.785778  s :     0.785778
      pz      :     0.005538  p :     0.022507
      px      :     0.012625
      py      :     0.004343
  7 H s       :     0.788474  s :     0.788474
      pz      :     0.012957  p :     0.025552
      px      :     0.009397
      py      :     0.003199
  8 Pbs       :     3.930120  s :     3.930120
      pz      :     2.338374  p :     7.025062
      px      :     2.347796
      py      :     2.338892
      dz2     :     2.030726  d :    10.152644
      dxz     :     2.032617
      dyz     :     2.030083
      dx2y2   :     2.029109
      dxy     :     2.030109
      f0      :     0.015281  f :     0.071736
      f+1     :     0.010196
      f-1     :     0.010383
      f+2     :     0.007557
      f-2     :     0.004168
      f+3     :     0.012228
      f-3     :     0.011923
  9 Cls       :     5.951673  s :     5.951673
      pz      :     3.909644  p :    11.595912
      px      :     3.780883
      py      :     3.905385
      dz2     :     0.002730  d :     0.018031
      dxz     :     0.003652
      dyz     :     0.000909
      dx2y2   :     0.007244
      dxy     :     0.003495
      f0      :     0.000091  f :     0.000893
      f+1     :     0.000159
      f-1     :     0.000021
      f+2     :     0.000139
      f-2     :     0.000063
      f+3     :     0.000235
      f-3     :     0.000186
 10 Cls       :     5.948957  s :     5.948957
      pz      :     3.912360  p :    11.599203
      px      :     3.895157
      py      :     3.791686
      dz2     :     0.003120  d :     0.020489
      dxz     :     0.001460
      dyz     :     0.003877
      dx2y2   :     0.008028
      dxy     :     0.004004
      f0      :     0.000108  f :     0.001024
      f+1     :     0.000028
      f-1     :     0.000177
      f+2     :     0.000160
      f-2     :     0.000077
      f+3     :     0.000227
      f-3     :     0.000248
 11 Cls       :     5.950933  s :     5.950933
      pz      :     3.779464  p :    11.607657
      px      :     3.912747
      py      :     3.915445
      dz2     :     0.010040  d :     0.017839
      dxz     :     0.003152
      dyz     :     0.003415
      dx2y2   :     0.000472
      dxy     :     0.000758
      f0      :     0.000390  f :     0.000863
      f+1     :     0.000184
      f-1     :     0.000198
      f+2     :     0.000032
      f-2     :     0.000043
      f+3     :     0.000006
      f-3     :     0.000010


                     *******************************
                     * LOEWDIN POPULATION ANALYSIS *
                     *******************************

----------------------
LOEWDIN ATOMIC CHARGES
----------------------
   0 C :   -0.306311
   1 N :    0.165165
   2 H :    0.208340
   3 H :    0.215403
   4 H :    0.210094
   5 H :    0.132894
   6 H :    0.131339
   7 H :    0.122287
   8 Pb:   -0.189086
   9 Cl:   -0.226156
  10 Cl:   -0.213631
  11 Cl:   -0.250337

-------------------------------
LOEWDIN REDUCED ORBITAL CHARGES
-------------------------------
  0 C s       :     2.855318  s :     2.855318
      pz      :     1.032925  p :     3.120709
      px      :     1.137129
      py      :     0.950654
      dz2     :     0.045005  d :     0.293024
      dxz     :     0.049208
      dyz     :     0.088875
      dx2y2   :     0.070894
      dxy     :     0.039041
      f0      :     0.004620  f :     0.037261
      f+1     :     0.002535
      f-1     :     0.008073
      f+2     :     0.006930
      f-2     :     0.005893
      f+3     :     0.005244
      f-3     :     0.003965
  1 N s       :     2.963611  s :     2.963611
      pz      :     1.229802  p :     3.690298
      px      :     1.213410
      py      :     1.247086
      dz2     :     0.032215  d :     0.170093
      dxz     :     0.039735
      dyz     :     0.033024
      dx2y2   :     0.038652
      dxy     :     0.026467
      f0      :     0.001543  f :     0.010834
      f+1     :     0.001147
      f-1     :     0.002155
      f+2     :     0.001118
      f-2     :     0.001865
      f+3     :     0.002102
      f-3     :     0.000903
  2 H s       :     0.689103  s :     0.689103
      pz      :     0.046470  p :     0.102557
      px      :     0.035013
      py      :     0.021075
  3 H s       :     0.681285  s :     0.681285
      pz      :     0.022609  p :     0.103311
      px      :     0.061085
      py      :     0.019617
  4 H s       :     0.687416  s :     0.687416
      pz      :     0.031753  p :     0.102490
      px      :     0.022642
      py      :     0.048095
  5 H s       :     0.797759  s :     0.797759
      pz      :     0.016885  p :     0.069347
      px      :     0.017973
      py      :     0.034488
  6 H s       :     0.803166  s :     0.803166
      pz      :     0.015947  p :     0.065496
      px      :     0.037163
      py      :     0.012386
  7 H s       :     0.802382  s :     0.802382
      pz      :     0.037534  p :     0.075332
      px      :     0.027238
      py      :     0.010560
  8 Pbs       :     3.692089  s :     3.692089
      pz      :     2.513861  p :     7.548506
      px      :     2.515257
      py      :     2.519388
      dz2     :     2.172238  d :    10.717952
      dxz     :     2.125209
      dyz     :     2.129782
      dx2y2   :     2.161185
      dxy     :     2.129537
      f0      :     0.052903  f :     0.230539
      f+1     :     0.030116
      f-1     :     0.032089
      f+2     :     0.023459
      f-2     :     0.013302
      f+3     :     0.040436
      f-3     :     0.038235
  9 Cls       :     5.745186  s :     5.745186
      pz      :     3.852952  p :    11.442505
      px      :     3.742786
      py      :     3.846767
      dz2     :     0.006505  d :     0.036335
      dxz     :     0.005033
      dyz     :     0.000662
      dx2y2   :     0.019825
      dxy     :     0.004310
      f0      :     0.000173  f :     0.002130
      f+1     :     0.000440
      f-1     :     0.000028
      f+2     :     0.000295
      f-2     :     0.000073
      f+3     :     0.000764
      f-3     :     0.000357
 10 Cls       :     5.727799  s :     5.727799
      pz      :     3.850350  p :    11.440441
      px      :     3.837927
      py      :     3.752165
      dz2     :     0.007518  d :     0.042790
      dxz     :     0.001466
      dyz     :     0.005739
      dx2y2   :     0.022184
      dxy     :     0.005883
      f0      :     0.000220  f :     0.002601
      f+1     :     0.000042
      f-1     :     0.000520
      f+2     :     0.000360
      f-2     :     0.000108
      f+3     :     0.000528
      f-3     :     0.000823
 11 Cls       :     5.748774  s :     5.748774
      pz      :     3.740018  p :    11.463795
      px      :     3.862612
      py      :     3.861165
      dz2     :     0.027223  d :     0.035700
      dxz     :     0.003498
      dyz     :     0.003943
      dx2y2   :     0.000374
      dxy     :     0.000662
      f0      :     0.001352  f :     0.002068
      f+1     :     0.000291
      f-1     :     0.000338
      f+2     :     0.000029
      f-2     :     0.000043
      f+3     :     0.000006
      f-3     :     0.000010


                      *****************************
                      * MAYER POPULATION ANALYSIS *
                      *****************************

  NA   - Mulliken gross atomic population
  ZA   - Total nuclear charge
  QA   - Mulliken gross atomic charge
  VA   - Mayer's total valence
  BVA  - Mayer's bonded valence
  FA   - Mayer's free valence

  ATOM       NA         ZA         QA         VA         BVA        FA
  0 C      6.3541     6.0000    -0.3541     3.6603     3.6603    -0.0000
  1 N      7.2729     7.0000    -0.2729     3.4822     3.4822     0.0000
  2 H      0.6897     1.0000     0.3103     0.8944     0.8944    -0.0000
  3 H      0.6732     1.0000     0.3268     0.8970     0.8970     0.0000
  4 H      0.6884     1.0000     0.3116     0.8957     0.8957     0.0000
  5 H      0.8063     1.0000     0.1937     1.0035     1.0035    -0.0000
  6 H      0.8083     1.0000     0.1917     0.9763     0.9763    -0.0000
  7 H      0.8140     1.0000     0.1860     1.0196     1.0196    -0.0000
  8 Pb    21.1796    22.0000     0.8204     1.9453     1.9453    -0.0000
  9 Cl    17.5665    17.0000    -0.5665     0.7407     0.7407    -0.0000
 10 Cl    17.5697    17.0000    -0.5697     0.7307     0.7307     0.0000
 11 Cl    17.5773    17.0000    -0.5773     0.7238     0.7238     0.0000

  Mayer bond orders larger than 0.1
B(  0-C ,  1-N ) :   0.8313 B(  0-C ,  5-H ) :   0.9323 B(  0-C ,  6-H ) :   0.9643 
B(  0-C ,  7-H ) :   0.9215 B(  1-N ,  2-H ) :   0.8940 B(  1-N ,  3-H ) :   0.8778 
B(  1-N ,  4-H ) :   0.8926 B(  7-H , 10-Cl) :   0.1035 B(  8-Pb,  9-Cl) :   0.6572 
B(  8-Pb, 10-Cl) :   0.6276 B(  8-Pb, 11-Cl) :   0.6479 

-------
TIMINGS
-------

Total SCF time: 0 days 0 hours 3 min 24 sec 

Total time                  ....     204.029 sec
Sum of individual times     ....     190.452 sec  ( 93.3%)

Fock matrix formation       ....     186.566 sec  ( 91.4%)
  Coulomb formation         ....     144.329 sec  ( 77.4% of F)
  Split-RI-J                ....      12.573 sec  (  6.7% of F)
  Chain of spheres X        ....     144.679 sec  ( 77.5% of F)
  COS-X 1 center corr.      ....       0.000 sec  (  0.0% of F)
  XC integration            ....      42.229 sec  ( 22.6% of F)
    Basis function eval.    ....      20.583 sec  ( 48.7% of XC)
    Density eval.           ....       7.010 sec  ( 16.6% of XC)
    XC-Functional eval.     ....       2.267 sec  (  5.4% of XC)
    XC-Potential eval.      ....      11.707 sec  ( 27.7% of XC)
Diagonalization             ....       0.333 sec  (  0.2%)
Density matrix formation    ....       0.027 sec  (  0.0%)
Population analysis         ....       0.046 sec  (  0.0%)
Initial guess               ....       0.073 sec  (  0.0%)
Orbital Transformation      ....       0.000 sec  (  0.0%)
Orbital Orthonormalization  ....       0.071 sec  (  0.0%)
DIIS solution               ....       0.077 sec  (  0.0%)
SOSCF solution              ....       0.034 sec  (  0.0%)
Grid generation             ....       3.294 sec  (  1.6%)

------------------------------------------------------------------------------
                              ORCA MP2 CALCULATION
------------------------------------------------------------------------------


----------------------
RI-MP2 ENERGY+GRADIENT
----------------------
Dimension of the basis                    ...  259
Memory devoted to MP2                     ... 1000 MB   
Data format for buffers                   ... DOUBLE
Compression type for matrix containers    ... UNCOMPRESSED
Overall scaling of the MP2 energy         ...   2.700e-01 Eh
Calculating two index integrals           ... done (    0.007 sec)
Cholesky decomposition of the V-matrix    ... done
Cholesky decomposition of V**-1           ... done (    0.017 sec)

-----------------
RI-TRANSFORMATION (AUX index driven)
-----------------

Dimension of the orbital-basis         ... 259
Dimension of the aux-basis             ... 493
Transformation of internal MOs         ...    0-  45
Transformation of internal/external MOs...    0-  45 to   46- 258
Number Format for Storage              ... Double (8 Byte)
Integral mode                          ... Direct

First Phase: integral generation and transformation of MO indices
  Aux angular momentum 0               ... done (    0.323 sec)
  Aux angular momentum 1               ... done (    0.232 sec)
  Aux angular momentum 2               ... done (    0.257 sec)
  Aux angular momentum 3               ... done (    0.142 sec)
  Aux angular momentum 4               ... done (    0.119 sec)
Closing buffer VIJ ( 0.00 GB; CompressionRatio= 1.95)
Closing buffer VIA ( 0.04 GB; CompressionRatio= 1.00)
  Phase 1 completed in     1.137 sec
Second Phase: sorting and transformation of aux index

IJ-Transformation
Memory available                       ... 990 MB 
Max. # MO pairs treated in a batch     ... 46    
# of internal orbitals                 ... 46
# batches for internal orbitals        ... 1
Closing buffer IJV ( 0.00 GB; CompressionRatio= 1.00)
(ij|v) transformation done in     0.073 sec

IA-Transformation
Memory available                       ... 990 MB 
Max. # MO pairs treated in a batch     ... 46    
# of internal orbitals                 ... 46
# batches for internal orbitals        ... 1
Closing buffer IAV ( 0.04 GB; CompressionRatio= 1.00)
(ia|v) transformation done in     0.190 sec

  Phase 2 completed in     0.276 sec
RI-Integral transformation completed in     1.414 sec
Opening buffers                              ... done

Starting loop over batches of integrals:

Operator 0  - window                       ... (  0- 45)x( 46-258)
Operator 0  - Memory available             ...  1000 MB
Operator 0  - Memory needed per MO         ...   1.6 MB
Operator 0  - Number of orbitals per batch ... 46
Operator 0  - Number of batches            ... 1

OPERATOR  0   PASS   0:  MOs     0 ...   45
  Reading integrals       ... ok
  Internal MO   2
  Internal MO   5
  Internal MO   8
  Internal MO  11
  Internal MO  14
  Internal MO  17
  Internal MO  20
  Internal MO  23
  Internal MO  26
  Internal MO  29
  Internal MO  32
  Internal MO  35
  Internal MO  38
  Internal MO  41
  Internal MO  44
Closing buffer GIPV ( 0.04 GB; CompressionRatio= 1.00)
Time spent in pair loops =    25.695 sec

-----------------------------------------------
 RI-MP2 CORRELATION ENERGY:     -0.576876533 Eh
-----------------------------------------------


---------------------
MP2 DENSITY FORMATION
---------------------

Completing the external part of the density      ... done
Storing the unrelaxed density                    ... done

Calculating the xc-kernel                        ... done
Calculating G(D)                                 ... done
Completing the Lagrangian                        ... done
Solving the Z-vector equations                   ... 

------------------------------------------------------------------------------
                           ORCA CP-SCF CALCULATION
------------------------------------------------------------------------------

Input orbitals are from        ... PbMACl3_mp2_md_0.orca.gbw
Input Perturbation             ... PbMACl3_mp2_md_0.orca.pin.tmp
Wavefunction output            ... PbMACl3_mp2_md_0.orca.pout.tmp
Perturbation mode              ... Real perturbation
Solver                         ... DIIS
   MaxDIIS                     ... 20
   Levelshift                  ...    3.000e-01 Eh
Max. number of iterations      ... 128
Convergence tolerance          ... 1.000e-08
Integral handling              ... Direct
COSX GridX                     ... 1
Number of perturbations        ... 1
Number of operators            ... 1
Orbital ranges used for CP-SCF:
 Operator 0:  Orbitals   0... 45  to  46...258
DFT calculation                         ... on
Exchange functional (SCF)               ... B88
Exchange functional (CP-SCF)            ... B88
   X-Alpha parameter    XAlpha (SCF)    ...  0.666667
   X-Alpha parameter    XAlpha (CP-SCF) ...  0.666667
   Becke's b parameter  XBeta (SCF)     ...  0.004200
   Becke's b parameter  XBeta (CP-SCF)  ...  0.004200
Correlation functional (SCF)            ... LYP
Correlation functional (CP-SCF)         ... LYP
 LDA part of GGA corr.  LDAOpt (SCF)    ... VWN-3
 LDA part of GGA corr.  LDAOpt (CP-SCF) ... VWN-3
Hybrid DFT                              ... on
   Exchange mixing (SCF)                ...  0.530
   Exchange mixing (CP-SCF)             ...  0.530
   GGA exch. scaling(SCF)               ...  0.470
   GGA exch. scaling (CP-SCF)           ...  0.470
   GGA corr. scaling (SCF)              ...  0.730
   GGA corr. scaling (CP-SCF)           ...  0.730
The RIJCOSX approximation is active
Variables per vector in CP-SCF ... 9798
Number of vectors sought       ... 1
Calculating the xc-kernel      ... done

Solving the CP-SCF equations by a DIIS algorithm

-----------------
CP-SCF ITERATIONS
-----------------
  Iteration   0: MaxR=  0.086324629
  Iteration   1: MaxR=  0.039651089
  Iteration   2: MaxR=  0.011944784
  Iteration   3: MaxR=  0.005156928
  Iteration   4: MaxR=  0.002646259
  Iteration   5: MaxR=  0.001085966
  Iteration   6: MaxR=  0.000435629
  Iteration   7: MaxR=  0.000116403
  Iteration   8: MaxR=  0.000039952
  Iteration   9: MaxR=  0.000012532
  Iteration  10: MaxR=  0.000005029
  Iteration  11: MaxR=  0.000002256
  Iteration  12: MaxR=  0.000001038
  Iteration  13: MaxR=  0.000000485
  Iteration  14: MaxR=  0.000000210
  Iteration  15: MaxR=  0.000000087
  Iteration  16: MaxR=  0.000000025
  Iteration  17: MaxR=  0.000000008
                              *** THE CP-SCF HAS CONVERGED *** 
done
Finalizing the relaxed density                   ... done
Transforming P to the AO basis                   ... done
Storing the relaxed density                      ... done

------------------------------------
ENERGY WEIGHTED DENSITY FINALIZATION
------------------------------------

Gathering the parts of the W-matrix              ... done
Forming the Z-density                            ... done
Transforming Z to the AO basis                   ... done
Calculating G(Z)                                 ... done
Finalizing the W-matrix                          ... done
Transforming W to the AO basis and storing       ... done
Entering the RIJONX and RIJCOSX sections
Starting the three-index derivative integrals:
Operator 0  - Memory available             ...  1000 MB
Operator 0  - Memory needed per MO         ...   1.0 MB
Operator 0  - Number of orbitals per batch ... 46
Operator 0  - Number of batches            ... 1

OPERATOR  0   PASS   0:  MOs     0 ...   45

----------------------------------
MP2 DERIVATIVE INTEGRAL GENERATION
----------------------------------


Input Correlated Electron Density   ... PbMACl3_mp2_md_0.orca.pmp2re
Input Energy Weighted Density       ... PbMACl3_mp2_md_0.orca.wmp2.tmp
Input SCF Electron Density          ... PbMACl3_mp2_md_0.orca.scfp.tmp

One-Electron Terms    ...
  ECP gradient                                           ... One-Electron Terms done

-----------------------------------------------------------
MP2 COSX Grid Generation
-----------------------------------------------------------

General Integration Accuracy     IntAcc      ...  4.340
Radial Grid Type                 RadialGrid  ... Gauss-Chebyshev
Angular Grid (max. acc.)         AngularGrid ... Lebedev-302
Angular grid pruning method      GridPruning ... 3 (G Style)
Weight generation scheme         WeightScheme... Becke
Basis function cutoff            BFCut       ...    1.0000e-11
Integration weight cutoff        WCut        ...    1.0000e-14
Grids for H and He will be reduced by one unit

# of grid points (after initial pruning)     ...  57718 (   0.0 sec)
# of grid points (after weights+screening)   ...  54468 (   0.1 sec)
nearest neighbour list constructed           ...    0.0 sec
Grid point re-assignment to atoms done       ...    0.0 sec
Grid point division into batches done        ...    0.2 sec
Reduced shell lists constructed in    1.0 sec

Total number of grid points                  ...    54468
Total number of batches                      ...      855
Average number of points per batch           ...       63
Average number of grid points per atom       ...     4539
Average number of shells per batch           ...    55.36 (54.82%)
Average number of basis functions per batch  ...   146.02 (56.38%)
Average number of large shells per batch     ...    41.85 (75.58%)
Average number of large basis fcns per batch ...   107.79 (73.82%)
Maximum spatial batch extension              ...  35.78, 34.50, 34.41 au
Average spatial batch extension              ...   3.14,  3.11,  3.07 au

Overlap Fitting                  UseSFitting ... on
Two electron COSX terms .... 
Integration Timings:
Total Time                  =    53.1 sec
Basis fcn evaluation        =     0.4 sec
Density evaluation          =     0.4 sec
Integral evaluation         =    51.3 sec
K(P) evaluation             =     0.3 sec
                          .... COSX two electron terms done
COSX two-electron contribution to the gradient
     0:    -0.013313     0.078403     0.062163
     1:     0.005673    -0.071131    -0.054674
     2:     0.131646    -0.036814     0.169182
     3:    -0.206531     0.027866     0.068278
     4:     0.068294     0.174276    -0.112193
     5:    -0.053277    -0.139021     0.063745
     6:     0.155788    -0.039926    -0.058516
     7:    -0.082596     0.011612    -0.133687
     8:    -0.021539    -0.017343    -0.021856
     9:     0.060946    -0.023549    -0.023379
    10:    -0.024879     0.057039    -0.022007
    11:    -0.020475    -0.021466     0.063003
Exchange-correlation gradient    ... done
Dispersion correction            ... 
Entering the calculation of the dispersion correction...

Checking the input atom types...

Done
done

                *********************************************
                * UNRELAXED MP2 DENSITY POPULATION ANALYSIS *
                *********************************************

------------------------------------------------------------------------------
                           ORCA POPULATION ANALYSIS
------------------------------------------------------------------------------
Input electron density              ... PbMACl3_mp2_md_0.orca.pmp2ur
BaseName (.gbw .S,...)              ... PbMACl3_mp2_md_0.orca

                    ********************************
                    * MULLIKEN POPULATION ANALYSIS *
                    ********************************

-----------------------
MULLIKEN ATOMIC CHARGES
-----------------------
   0 C :   -0.358588
   1 N :   -0.271848
   2 H :    0.310430
   3 H :    0.326785
   4 H :    0.311741
   5 H :    0.193819
   6 H :    0.192443
   7 H :    0.185906
   8 Pb:    0.804547
   9 Cl:   -0.560304
  10 Cl:   -0.563728
  11 Cl:   -0.571203
Sum of atomic charges:   -0.0000000

--------------------------------
MULLIKEN REDUCED ORBITAL CHARGES
--------------------------------
  0 C s       :     3.300481  s :     3.300481
      pz      :     0.971675  p :     2.973995
      px      :     1.159879
      py      :     0.842442
      dz2     :     0.010714  d :     0.076752
      dxz     :     0.013866
      dyz     :     0.023099
      dx2y2   :     0.018531
      dxy     :     0.010542
      f0      :     0.000638  f :     0.007361
      f+1     :     0.000515
      f-1     :     0.001424
      f+2     :     0.002010
      f-2     :     0.001213
      f+3     :     0.000854
      f-3     :     0.000706
  1 N s       :     3.411673  s :     3.411673
      pz      :     1.256979  p :     3.796218
      px      :     1.277504
      py      :     1.261734
      dz2     :     0.012438  d :     0.060406
      dxz     :     0.014232
      dyz     :     0.009994
      dx2y2   :     0.013078
      dxy     :     0.010663
      f0      :     0.000314  f :     0.003551
      f+1     :     0.000414
      f-1     :     0.000512
      f+2     :     0.000985
      f-2     :     0.000540
      f+3     :     0.000537
      f-3     :     0.000250
  2 H s       :     0.654852  s :     0.654852
      pz      :     0.016136  p :     0.034719
      px      :     0.011746
      py      :     0.006837
  3 H s       :     0.638487  s :     0.638487
      pz      :     0.007718  p :     0.034728
      px      :     0.020447
      py      :     0.006563
  4 H s       :     0.653471  s :     0.653471
      pz      :     0.010294  p :     0.034788
      px      :     0.007590
      py      :     0.016904
  5 H s       :     0.781776  s :     0.781776
      pz      :     0.005317  p :     0.024405
      px      :     0.006471
      py      :     0.012616
  6 H s       :     0.784068  s :     0.784068
      pz      :     0.005871  p :     0.023489
      px      :     0.012922
      py      :     0.004696
  7 H s       :     0.787579  s :     0.787579
      pz      :     0.013188  p :     0.026515
      px      :     0.009725
      py      :     0.003601
  8 Pbs       :     3.910680  s :     3.910680
      pz      :     2.347437  p :     7.051765
      px      :     2.356716
      py      :     2.347611
      dz2     :     2.025217  d :    10.125093
      dxz     :     2.027111
      dyz     :     2.024519
      dx2y2   :     2.023667
      dxy     :     2.024579
      f0      :     0.020345  f :     0.107916
      f+1     :     0.015410
      f-1     :     0.015581
      f+2     :     0.012765
      f-2     :     0.009357
      f+3     :     0.017367
      f-3     :     0.017089
  9 Cls       :     5.947111  s :     5.947111
      pz      :     3.895224  p :    11.552560
      px      :     3.766427
      py      :     3.890909
      dz2     :     0.010489  d :     0.057025
      dxz     :     0.011509
      dyz     :     0.008638
      dx2y2   :     0.015027
      dxy     :     0.011362
      f0      :     0.000471  f :     0.003608
      f+1     :     0.000551
      f-1     :     0.000394
      f+2     :     0.000528
      f-2     :     0.000449
      f+3     :     0.000630
      f-3     :     0.000584
 10 Cls       :     5.944407  s :     5.944407
      pz      :     3.897951  p :    11.555900
      px      :     3.880597
      py      :     3.777351
      dz2     :     0.010906  d :     0.059656
      dxz     :     0.009258
      dyz     :     0.011756
      dx2y2   :     0.015834
      dxy     :     0.011902
      f0      :     0.000491  f :     0.003765
      f+1     :     0.000404
      f-1     :     0.000571
      f+2     :     0.000555
      f-2     :     0.000467
      f+3     :     0.000629
      f-3     :     0.000648
 11 Cls       :     5.946366  s :     5.946366
      pz      :     3.765030  p :    11.564497
      px      :     3.898349
      py      :     3.901118
      dz2     :     0.017808  d :     0.056769
      dxz     :     0.011016
      dyz     :     0.011265
      dx2y2   :     0.008196
      dxy     :     0.008484
      f0      :     0.000789  f :     0.003571
      f+1     :     0.000585
      f-1     :     0.000599
      f+2     :     0.000417
      f-2     :     0.000428
      f+3     :     0.000374
      f-3     :     0.000378


                     *******************************
                     * LOEWDIN POPULATION ANALYSIS *
                     *******************************

----------------------
LOEWDIN ATOMIC CHARGES
----------------------
   0 C :   -0.310087
   1 N :    0.164787
   2 H :    0.208502
   3 H :    0.215497
   4 H :    0.210253
   5 H :    0.133296
   6 H :    0.131990
   7 H :    0.122614
   8 Pb:   -0.199522
   9 Cl:   -0.221688
  10 Cl:   -0.209679
  11 Cl:   -0.245963

-------------------------------
LOEWDIN REDUCED ORBITAL CHARGES
-------------------------------
  0 C s       :     2.854766  s :     2.854766
      pz      :     1.030600  p :     3.113659
      px      :     1.134027
      py      :     0.949032
      dz2     :     0.046855  d :     0.302599
      dxz     :     0.051315
      dyz     :     0.090642
      dx2y2   :     0.072823
      dxy     :     0.040965
      f0      :     0.004859  f :     0.039062
      f+1     :     0.002791
      f-1     :     0.008301
      f+2     :     0.007301
      f-2     :     0.006123
      f+3     :     0.005480
      f-3     :     0.004207
  1 N s       :     2.962975  s :     2.962975
      pz      :     1.226234  p :     3.679694
      px      :     1.210361
      py      :     1.243099
      dz2     :     0.034098  d :     0.180414
      dxz     :     0.041755
      dyz     :     0.035370
      dx2y2   :     0.040834
      dxy     :     0.028356
      f0      :     0.001719  f :     0.012130
      f+1     :     0.001329
      f-1     :     0.002331
      f+2     :     0.001354
      f-2     :     0.002039
      f+3     :     0.002280
      f-3     :     0.001078
  2 H s       :     0.687674  s :     0.687674
      pz      :     0.047015  p :     0.103824
      px      :     0.035435
      py      :     0.021374
  3 H s       :     0.679990  s :     0.679990
      pz      :     0.022955  p :     0.104513
      px      :     0.061627
      py      :     0.019931
  4 H s       :     0.686002  s :     0.686002
      pz      :     0.032102  p :     0.103745
      px      :     0.022979
      py      :     0.048664
  5 H s       :     0.795523  s :     0.795523
      pz      :     0.017461  p :     0.071181
      px      :     0.018473
      py      :     0.035247
  6 H s       :     0.800713  s :     0.800713
      pz      :     0.016409  p :     0.067297
      px      :     0.038043
      py      :     0.012845
  7 H s       :     0.800168  s :     0.800168
      pz      :     0.038285  p :     0.077217
      px      :     0.027858
      py      :     0.011075
  8 Pbs       :     3.675389  s :     3.675389
      pz      :     2.521437  p :     7.570460
      px      :     2.522626
      py      :     2.526397
      dz2     :     2.166181  d :    10.687358
      dxz     :     2.119098
      dyz     :     2.123594
      dx2y2   :     2.155205
      dxy     :     2.123279
      f0      :     0.057786  f :     0.266316
      f+1     :     0.035298
      f-1     :     0.037254
      f+2     :     0.028697
      f-2     :     0.018485
      f+3     :     0.045475
      f-3     :     0.043321
  9 Cls       :     5.740838  s :     5.740838
      pz      :     3.838889  p :    11.400539
      px      :     3.729005
      py      :     3.832645
      dz2     :     0.014275  d :     0.075401
      dxz     :     0.012885
      dyz     :     0.008432
      dx2y2   :     0.027637
      dxy     :     0.012172
      f0      :     0.000561  f :     0.004910
      f+1     :     0.000842
      f-1     :     0.000402
      f+2     :     0.000696
      f-2     :     0.000463
      f+3     :     0.001175
      f-3     :     0.000770
 10 Cls       :     5.723525  s :     5.723525
      pz      :     3.836368  p :    11.398687
      px      :     3.823810
      py      :     3.738509
      dz2     :     0.015319  d :     0.082048
      dxz     :     0.009281
      dyz     :     0.013611
      dx2y2   :     0.030044
      dxy     :     0.013794
      f0      :     0.000612  f :     0.005420
      f+1     :     0.000420
      f-1     :     0.000925
      f+2     :     0.000768
      f-2     :     0.000503
      f+3     :     0.000950
      f-3     :     0.001241
 11 Cls       :     5.744428  s :     5.744428
      pz      :     3.726295  p :    11.422008
      px      :     3.848546
      py      :     3.847167
      dz2     :     0.035045  d :     0.074689
      dxz     :     0.011335
      dyz     :     0.011772
      dx2y2   :     0.008124
      dxy     :     0.008413
      f0      :     0.001779  f :     0.004838
      f+1     :     0.000706
      f-1     :     0.000754
      f+2     :     0.000415
      f-2     :     0.000430
      f+3     :     0.000374
      f-3     :     0.000379


                      *****************************
                      * MAYER POPULATION ANALYSIS *
                      *****************************

  NA   - Mulliken gross atomic population
  ZA   - Total nuclear charge
  QA   - Mulliken gross atomic charge
  VA   - Mayer's total valence
  BVA  - Mayer's bonded valence
  FA   - Mayer's free valence

  ATOM       NA         ZA         QA         VA         BVA        FA
  0 C      6.3586     6.0000    -0.3586     3.7119     3.5943     0.1176
  1 N      7.2718     7.0000    -0.2718     3.5497     3.4200     0.1297
  2 H      0.6896     1.0000     0.3104     0.8959     0.8797     0.0162
  3 H      0.6732     1.0000     0.3268     0.8988     0.8826     0.0162
  4 H      0.6883     1.0000     0.3117     0.8972     0.8811     0.0162
  5 H      0.8062     1.0000     0.1938     1.0065     0.9866     0.0199
  6 H      0.8076     1.0000     0.1924     0.9788     0.9603     0.0185
  7 H      0.8141     1.0000     0.1859     1.0226     1.0021     0.0205
  8 Pb    21.1955    22.0000     0.8045     2.2567     1.8876     0.3691
  9 Cl    17.5603    17.0000    -0.5603     0.9792     0.7180     0.2612
 10 Cl    17.5637    17.0000    -0.5637     0.9695     0.7088     0.2607
 11 Cl    17.5712    17.0000    -0.5712     0.9630     0.7018     0.2611

  Mayer bond orders larger than 0.1
B(  0-C ,  1-N ) :   0.8120 B(  0-C ,  5-H ) :   0.9172 B(  0-C ,  6-H ) :   0.9494 
B(  0-C ,  7-H ) :   0.9062 B(  1-N ,  2-H ) :   0.8798 B(  1-N ,  3-H ) :   0.8641 
B(  1-N ,  4-H ) :   0.8785 B(  7-H , 10-Cl) :   0.1017 B(  8-Pb,  9-Cl) :   0.6374 
B(  8-Pb, 10-Cl) :   0.6090 B(  8-Pb, 11-Cl) :   0.6286 


                *******************************************
                * RELAXED MP2 DENSITY POPULATION ANALYSIS *
                *******************************************

------------------------------------------------------------------------------
                           ORCA POPULATION ANALYSIS
------------------------------------------------------------------------------
Input electron density              ... PbMACl3_mp2_md_0.orca.pmp2re
BaseName (.gbw .S,...)              ... PbMACl3_mp2_md_0.orca

                    ********************************
                    * MULLIKEN POPULATION ANALYSIS *
                    ********************************

-----------------------
MULLIKEN ATOMIC CHARGES
-----------------------
   0 C :   -0.374328
   1 N :   -0.273426
   2 H :    0.311396
   3 H :    0.326861
   4 H :    0.312667
   5 H :    0.195027
   6 H :    0.194130
   7 H :    0.185362
   8 Pb:    0.751852
   9 Cl:   -0.537984
  10 Cl:   -0.542146
  11 Cl:   -0.549409
Sum of atomic charges:   -0.0000000

--------------------------------
MULLIKEN REDUCED ORBITAL CHARGES
--------------------------------
  0 C s       :     3.302632  s :     3.302632
      pz      :     0.977991  p :     2.992319
      px      :     1.164678
      py      :     0.849650
      dz2     :     0.010335  d :     0.072193
      dxz     :     0.012729
      dyz     :     0.021732
      dx2y2   :     0.017234
      dxy     :     0.010163
      f0      :     0.000621  f :     0.007185
      f+1     :     0.000499
      f-1     :     0.001397
      f+2     :     0.001949
      f-2     :     0.001192
      f+3     :     0.000832
      f-3     :     0.000695
  1 N s       :     3.413228  s :     3.413228
      pz      :     1.257278  p :     3.797744
      px      :     1.279716
      py      :     1.260750
      dz2     :     0.012533  d :     0.058964
      dxz     :     0.013835
      dyz     :     0.009323
      dx2y2   :     0.012547
      dxy     :     0.010726
      f0      :     0.000309  f :     0.003490
      f+1     :     0.000404
      f-1     :     0.000511
      f+2     :     0.000951
      f-2     :     0.000537
      f+3     :     0.000531
      f-3     :     0.000246
  2 H s       :     0.654356  s :     0.654356
      pz      :     0.015771  p :     0.034248
      px      :     0.011579
      py      :     0.006898
  3 H s       :     0.638906  s :     0.638906
      pz      :     0.007706  p :     0.034233
      px      :     0.019924
      py      :     0.006603
  4 H s       :     0.653023  s :     0.653023
      pz      :     0.010201  p :     0.034310
      px      :     0.007605
      py      :     0.016504
  5 H s       :     0.780885  s :     0.780885
      pz      :     0.005281  p :     0.024088
      px      :     0.006509
      py      :     0.012298
  6 H s       :     0.782771  s :     0.782771
      pz      :     0.005878  p :     0.023100
      px      :     0.012483
      py      :     0.004738
  7 H s       :     0.788398  s :     0.788398
      pz      :     0.012883  p :     0.026240
      px      :     0.009676
      py      :     0.003681
  8 Pbs       :     3.925780  s :     3.925780
      pz      :     2.362710  p :     7.092112
      px      :     2.369987
      py      :     2.359415
      dz2     :     2.023099  d :    10.124247
      dxz     :     2.028298
      dyz     :     2.025553
      dx2y2   :     2.021820
      dxy     :     2.025476
      f0      :     0.019822  f :     0.106009
      f+1     :     0.015186
      f-1     :     0.015351
      f+2     :     0.012606
      f-2     :     0.009286
      f+3     :     0.016985
      f-3     :     0.016773
  9 Cls       :     5.947772  s :     5.947772
      pz      :     3.887934  p :    11.529649
      px      :     3.758772
      py      :     3.882943
      dz2     :     0.010517  d :     0.056946
      dxz     :     0.011434
      dyz     :     0.008611
      dx2y2   :     0.015113
      dxy     :     0.011271
      f0      :     0.000472  f :     0.003617
      f+1     :     0.000552
      f-1     :     0.000394
      f+2     :     0.000530
      f-2     :     0.000450
      f+3     :     0.000631
      f-3     :     0.000587
 10 Cls       :     5.944859  s :     5.944859
      pz      :     3.891111  p :    11.533799
      px      :     3.872178
      py      :     3.770510
      dz2     :     0.010941  d :     0.059716
      dxz     :     0.009255
      dyz     :     0.011698
      dx2y2   :     0.015995
      dxy     :     0.011826
      f0      :     0.000492  f :     0.003773
      f+1     :     0.000405
      f-1     :     0.000572
      f+2     :     0.000557
      f-2     :     0.000468
      f+3     :     0.000631
      f-3     :     0.000648
 11 Cls       :     5.946960  s :     5.946960
      pz      :     3.757400  p :    11.542174
      px      :     3.890807
      py      :     3.893967
      dz2     :     0.017877  d :     0.056696
      dxz     :     0.010967
      dyz     :     0.011187
      dx2y2   :     0.008195
      dxy     :     0.008470
      f0      :     0.000788  f :     0.003579
      f+1     :     0.000589
      f-1     :     0.000602
      f+2     :     0.000418
      f-2     :     0.000429
      f+3     :     0.000375
      f-3     :     0.000378


                     *******************************
                     * LOEWDIN POPULATION ANALYSIS *
                     *******************************

----------------------
LOEWDIN ATOMIC CHARGES
----------------------
   0 C :   -0.320632
   1 N :    0.161297
   2 H :    0.209410
   3 H :    0.216068
   4 H :    0.211128
   5 H :    0.134709
   6 H :    0.133432
   7 H :    0.123711
   8 Pb:   -0.226984
   9 Cl:   -0.209214
  10 Cl:   -0.198912
  11 Cl:   -0.234012

-------------------------------
LOEWDIN REDUCED ORBITAL CHARGES
-------------------------------
  0 C s       :     2.856983  s :     2.856983
      pz      :     1.035292  p :     3.126830
      px      :     1.137678
      py      :     0.953860
      dz2     :     0.046480  d :     0.298034
      dxz     :     0.050305
      dyz     :     0.089114
      dx2y2   :     0.071491
      dxy     :     0.040644
      f0      :     0.004834  f :     0.038785
      f+1     :     0.002776
      f-1     :     0.008246
      f+2     :     0.007201
      f-2     :     0.006094
      f+3     :     0.005457
      f-3     :     0.004178
  1 N s       :     2.963538  s :     2.963538
      pz      :     1.227195  p :     3.682963
      px      :     1.212665
      py      :     1.243104
      dz2     :     0.034362  d :     0.180034
      dxz     :     0.041529
      dyz     :     0.035031
      dx2y2   :     0.040579
      dxy     :     0.028533
      f0      :     0.001728  f :     0.012168
      f+1     :     0.001327
      f-1     :     0.002346
      f+2     :     0.001351
      f-2     :     0.002044
      f+3     :     0.002291
      f-3     :     0.001081
  2 H s       :     0.687144  s :     0.687144
      pz      :     0.046707  p :     0.103446
      px      :     0.035287
      py      :     0.021451
  3 H s       :     0.679833  s :     0.679833
      pz      :     0.022971  p :     0.104099
      px      :     0.061131
      py      :     0.019997
  4 H s       :     0.685520  s :     0.685520
      pz      :     0.032004  p :     0.103353
      px      :     0.023014
      py      :     0.048335
  5 H s       :     0.793863  s :     0.793863
      pz      :     0.017570  p :     0.071427
      px      :     0.018637
      py      :     0.035220
  6 H s       :     0.799132  s :     0.799132
      pz      :     0.016558  p :     0.067437
      px      :     0.037848
      py      :     0.013030
  7 H s       :     0.798745  s :     0.798745
      pz      :     0.038259  p :     0.077544
      px      :     0.028025
      py      :     0.011260
  8 Pbs       :     3.688896  s :     3.688896
      pz      :     2.530691  p :     7.592931
      px      :     2.529964
      py      :     2.532276
      dz2     :     2.163026  d :    10.681234
      dxz     :     2.119246
      dyz     :     2.123655
      dx2y2   :     2.152249
      dxy     :     2.123058
      f0      :     0.057312  f :     0.263923
      f+1     :     0.034972
      f-1     :     0.036947
      f+2     :     0.028368
      f-2     :     0.018321
      f+3     :     0.045049
      f-3     :     0.042954
  9 Cls       :     5.743915  s :     5.743915
      pz      :     3.833281  p :    11.383960
      px      :     3.724149
      py      :     3.826531
      dz2     :     0.014434  d :     0.076347
      dxz     :     0.013058
      dyz     :     0.008431
      dx2y2   :     0.028126
      dxy     :     0.012296
      f0      :     0.000571  f :     0.004992
      f+1     :     0.000854
      f-1     :     0.000404
      f+2     :     0.000712
      f-2     :     0.000467
      f+3     :     0.001193
      f-3     :     0.000792
 10 Cls       :     5.726632  s :     5.726632
      pz      :     3.831197  p :    11.383492
      px      :     3.817923
      py      :     3.734372
      dz2     :     0.015505  d :     0.083271
      dxz     :     0.009304
      dyz     :     0.013837
      dx2y2   :     0.030612
      dxy     :     0.014013
      f0      :     0.000624  f :     0.005518
      f+1     :     0.000422
      f-1     :     0.000938
      f+2     :     0.000787
      f-2     :     0.000509
      f+3     :     0.000978
      f-3     :     0.001259
 11 Cls       :     5.747456  s :     5.747456
      pz      :     3.721532  p :    11.406031
      px      :     3.842931
      py      :     3.841567
      dz2     :     0.035706  d :     0.075609
      dxz     :     0.011467
      dyz     :     0.011892
      dx2y2   :     0.008131
      dxy     :     0.008414
      f0      :     0.001812  f :     0.004916
      f+1     :     0.000726
      f-1     :     0.000775
      f+2     :     0.000417
      f-2     :     0.000433
      f+3     :     0.000375
      f-3     :     0.000380


                      *****************************
                      * MAYER POPULATION ANALYSIS *
                      *****************************

  NA   - Mulliken gross atomic population
  ZA   - Total nuclear charge
  QA   - Mulliken gross atomic charge
  VA   - Mayer's total valence
  BVA  - Mayer's bonded valence
  FA   - Mayer's free valence

  ATOM       NA         ZA         QA         VA         BVA        FA
  0 C      6.3743     6.0000    -0.3743     3.7058     3.5886     0.1173
  1 N      7.2734     7.0000    -0.2734     3.5523     3.4228     0.1295
  2 H      0.6886     1.0000     0.3114     0.8946     0.8784     0.0162
  3 H      0.6731     1.0000     0.3269     0.8993     0.8832     0.0161
  4 H      0.6873     1.0000     0.3127     0.8961     0.8800     0.0161
  5 H      0.8050     1.0000     0.1950     1.0110     0.9912     0.0198
  6 H      0.8059     1.0000     0.1941     0.9798     0.9614     0.0184
  7 H      0.8146     1.0000     0.1854     1.0297     1.0093     0.0204
  8 Pb    21.2481    22.0000     0.7519     2.3381     1.9748     0.3633
  9 Cl    17.5380    17.0000    -0.5380     1.0198     0.7601     0.2598
 10 Cl    17.5421    17.0000    -0.5421     1.0101     0.7507     0.2594
 11 Cl    17.5494    17.0000    -0.5494     1.0031     0.7433     0.2597

  Mayer bond orders larger than 0.1
B(  0-C ,  1-N ) :   0.8179 B(  0-C ,  5-H ) :   0.9128 B(  0-C ,  6-H ) :   0.9456 
B(  0-C ,  7-H ) :   0.9012 B(  1-N ,  2-H ) :   0.8784 B(  1-N ,  3-H ) :   0.8624 
B(  1-N ,  4-H ) :   0.8771 B(  7-H , 10-Cl) :   0.1119 B(  8-Pb,  9-Cl) :   0.6668 
B(  8-Pb, 10-Cl) :   0.6355 B(  8-Pb, 11-Cl) :   0.6581 


-------
TIMINGS
-------

Total time                :  305.692 sec
Integral trafo            :    1.420 sec (  0.5%)
I/O of integrals          :    0.079 sec (  0.0%)
K(i,j) Operators          :    3.062 sec (  1.0%)
T(i,j) pair energies      :    0.756 sec (  0.2%)
V-calculation             :    0.007 sec (  0.0%)
V**(-1/2)                 :    0.017 sec (  0.0%)
Gamma(ia|P)               :    2.699 sec (  0.9%)
Gamma-Trafo               :    0.368 sec (  0.1%)
D(virtual)                :    1.181 sec (  0.4%)
D(internal)               :    2.578 sec (  0.8%)
W(virtual)                :    2.331 sec (  0.8%)
W(internal)               :    8.531 sec (  2.8%)
L(virtual)                :    3.839 sec (  1.3%)
L(internal)               :    0.126 sec (  0.0%)
G(D)                      :    8.660 sec (  2.8%)
G(Z)                      :    8.688 sec (  2.8%)
Z-Vector Solution         :  194.159 sec ( 63.5%)
Z-Vector Solution         :  194.159 sec ( 63.5%)
3-Index Derivative 
+ Separable RIJ part      :    2.743 sec (  0.9%)
2-Index Derivative 
+ Separable RIJ part      :    0.015 sec (  0.0%)
Separable Gradient (COSX) :   61.411 sec ( 20.1%)


---------------------------------------
MP2 TOTAL ENERGY:    -1669.557398594 Eh
---------------------------------------

The final MP2 gradient
  0:  -0.00677053   0.02743458   0.02101214
  1:  -0.00122217   0.00204089   0.00103456
  2:  -0.00264226  -0.00212303  -0.00761069
  3:   0.00870314  -0.00258808  -0.00305820
  4:  -0.00084257  -0.00807328   0.00093202
  5:  -0.00036780  -0.00594304  -0.00379118
  6:   0.00139106  -0.00405096  -0.00425582
  7:  -0.00032557  -0.00569768  -0.00470496
  8:   0.03019230   0.04805294   0.02580239
  9:  -0.02434049  -0.00415049  -0.00161853
 10:   0.00085869  -0.03880108   0.00070113
 11:  -0.00490633  -0.00615229  -0.02436808

-----------------------------------
NORM OF THE MP2 GRADIENT:  0.090977
-----------------------------------

Entering the calculation of the dispersion correction...

Checking the input atom types...

Done


-------------------------------------------------------------------------------
                          DFT DISPERSION CORRECTION                            
                                                                               
                                DFTD3 V2.1  Rev 6                               
                          USING Becke-Johnson damping                          
-------------------------------------------------------------------------------
The B2PLYP functional is recognized
Active option DFTDOPT                   ...         4   

molecular C6(AA) [au] = 4867.281222 


            DFT-D V3
 parameters
 s6 scaling factor         :     0.6400 
 a1 scaling factor         :     0.3065 
 s8 scaling factor         :     0.9147 
 a2 scaling factor         :     5.0570 
 ad hoc parameters k1-k3   :    16.0000     1.3333    -4.0000 

 Edisp/kcal,au: -8.149293167651  -0.012986723922 
 E6   /kcal   :  -3.713697096 
 E8   /kcal   :  -4.435596071 
 % E8         :  54.429212202 

-------------------------   ----------------
Dispersion correction           -0.012986724
-------------------------   ----------------


-------------------------   --------------------
FINAL SINGLE POINT ENERGY     -1669.570385317672
-------------------------   --------------------


                            ***************************************
                            *     ORCA property calculations      *
                            ***************************************


  WARNING: The energy has been calculated at the MP2 level but the densities
           used in the property calculations are still SCF densities
           MP2 response densities have not been calculated 
           use %mp2 Density relaxed end
           or  %mp2 Density unrelaxed end

                                    ---------------------
                                    Active property flags
                                    ---------------------
   (+) Dipole Moment


------------------------------------------------------------------------------
                       ORCA ELECTRIC PROPERTIES CALCULATION
------------------------------------------------------------------------------

Dipole Moment Calculation                       ... on
Quadrupole Moment Calculation                   ... off
Polarizability Calculation                      ... off
GBWName                                         ... PbMACl3_mp2_md_0.orca.gbw
Electron density file                           ... PbMACl3_mp2_md_0.orca.scfp.tmp

-------------
DIPOLE MOMENT
-------------
                                X             Y             Z
Electronic contribution:    -60.84974     -68.52016     -54.47170
Nuclear contribution   :     63.23700      72.57643      57.09941
                        -----------------------------------------
Total Dipole Moment    :      2.38725       4.05627       2.62771
                        -----------------------------------------
Magnitude (a.u.)       :      5.39047
Magnitude (Debye)      :     13.70149


                         *** MP2 UNRELAXED DENSITY ***

------------------------------------------------------------------------------
                       ORCA ELECTRIC PROPERTIES CALCULATION
------------------------------------------------------------------------------

Dipole Moment Calculation                       ... on
Quadrupole Moment Calculation                   ... off
Polarizability Calculation                      ... off
GBWName                                         ... PbMACl3_mp2_md_0.orca.gbw
Electron density file                           ... PbMACl3_mp2_md_0.orca.pmp2ur

-------------
DIPOLE MOMENT
-------------
                                X             Y             Z
Electronic contribution:    -60.84878     -68.52222     -54.46984
Nuclear contribution   :     63.23700      72.57643      57.09941
                        -----------------------------------------
Total Dipole Moment    :      2.38821       4.05421       2.62957
                        -----------------------------------------
Magnitude (a.u.)       :      5.39026
Magnitude (Debye)      :     13.70094


                           *** MP2 RELAXED DENSITY ***

------------------------------------------------------------------------------
                       ORCA ELECTRIC PROPERTIES CALCULATION
------------------------------------------------------------------------------

Dipole Moment Calculation                       ... on
Quadrupole Moment Calculation                   ... off
Polarizability Calculation                      ... off
GBWName                                         ... PbMACl3_mp2_md_0.orca.gbw
Electron density file                           ... PbMACl3_mp2_md_0.orca.pmp2re

-------------
DIPOLE MOMENT
-------------
                                X             Y             Z
Electronic contribution:    -60.88278     -68.57076     -54.49771
Nuclear contribution   :     63.23700      72.57643      57.09941
                        -----------------------------------------
Total Dipole Moment    :      2.35421       4.00567       2.60170
                        -----------------------------------------
Magnitude (a.u.)       :      5.32509
Magnitude (Debye)      :     13.53530


Timings for individual modules:

Sum of individual times         ...      515.872 sec (=   8.598 min)
GTO integral calculation        ...        1.975 sec (=   0.033 min)   0.4 %
SCF iterations                  ...      206.073 sec (=   3.435 min)  39.9 %
MP2 module                      ...      307.824 sec (=   5.130 min)  59.7 %
                             ****ORCA TERMINATED NORMALLY****
TOTAL RUN TIME: 0 days 0 hours 8 minutes 37 seconds 496 msec
