
                                 *****************
                                 * O   R   C   A *
                                 *****************

           --- An Ab Initio, DFT and Semiempirical electronic structure package ---

                  #######################################################
                  #                        -***-                        #
                  #  Department of molecular theory and spectroscopy    #
                  #              Directorship: Frank Neese              #
                  # Max Planck Institute for Chemical Energy Conversion #
                  #                  D-45470 Muelheim/Ruhr              #
                  #                       Germany                       #
                  #                                                     #
                  #                  All rights reserved                #
                  #                        -***-                        #
                  #######################################################


                         Program Version 3.0.3 - RELEASE   -


 With contributions from (in alphabetic order):
   Ute Becker             : Parallelization
   Dmytro Bykov           : SCF Hessian
   Dmitry Ganyushin       : Spin-Orbit,Spin-Spin,Magnetic field MRCI
   Andreas Hansen         : Spin unrestricted coupled pair/coupled cluster methods
   Dimitrios Liakos       : Extrapolation schemes; parallel MDCI
   Robert Izsak           : Overlap fitted RIJCOSX, COSX-SCS-MP3
   Christian Kollmar      : KDIIS, OOCD, Brueckner-CCSD(T), CCSD density
   Simone Kossmann        : Meta GGA functionals, TD-DFT gradient, OOMP2, MP2 Hessian
   Taras Petrenko         : DFT Hessian,TD-DFT gradient, ASA and ECA modules, normal mode analysis, Resonance Raman, ABS, FL, XAS/XES, NRVS
   Christoph Reimann      : Effective Core Potentials
   Michael Roemelt        : Restricted open shell CIS
   Christoph Riplinger    : Improved optimizer, TS searches, QM/MM, DLPNO-CCSD
   Barbara Sandhoefer     : DKH picture change effects
   Igor Schapiro          : Molecular dynamics
   Kantharuban Sivalingam : CASSCF convergence, NEVPT2
   Boris Wezisla          : Elementary symmetry handling
   Frank Wennmohs         : Technical directorship


 We gratefully acknowledge several colleagues who have allowed us to
 interface, adapt or use parts of their codes:
   Stefan Grimme, W. Hujo, H. Kruse, T. Risthaus : VdW corrections, initial TS optimization,
                                                   DFT functionals, gCP
   Ed Valeev                                     : LibInt (2-el integral package), F12 methods
   Garnet Chan, S. Sharma, R. Olivares           : DMRG
   Ulf Ekstrom                                   : XCFun DFT Library
   Mihaly Kallay                                 : mrcc  (arbitrary order and MRCC methods)
   Andreas Klamt, Michael Diedenhofen            : otool_cosmo (COSMO solvation model)
   Frank Weinhold                                : gennbo (NPA and NBO analysis)
   Christopher J. Cramer and Donald G. Truhlar   : smd solvation model


 Your calculation uses the libint2 library for the computation of 2-el integrals
 For citations please refer to: http://libint.valeyev.net

 This ORCA versions uses:
   CBLAS   interface :  Fast vector & matrix operations
   LAPACKE interface :  Fast linear algebra routines
   SCALAPACK package :  Parallel linear algebra routines


Your calculation utilizes the basis: Ahlrichs-TZV
Cite in your paper:
H - Kr: A. Schaefer, H. Horn and R. Ahlrichs, J. Chem. Phys. 97, 2571 (1992).

The def2-TZV basis will be loaded
Cite in your paper:
 	F. Weigend, R. Ahlrichs, Phys. Chem. Chem. Phys. 2005, 7, 3297.

Your calculation utilizes the geometrical counterpoise correction gCP
Please cite in your paper:
H.Kruse, S. Grimme J.Chem.Phys., 136, (2012), 154101 
   

================================================================================
                                        WARNINGS
                       Please study these warnings very carefully!
================================================================================
Now building the actual basis set
cite the ECPs for Pb [SD(60,MDF)] as follows:
  B. Metz, H. Stoll, M. Dolg, J. Chem. Phys. 113, 2563 (2000).

ECP parameters for Pb [SD(60,MDF)] have been obtained from:
  pseudopotential library of the Stuttgart/Cologne group
  http://www.theochem.uni-stuttgart.de/pseudopotentials/

cite the ECP basis sets for Pb [DEF2-TZVP] as follows:
  F. Weigend, R. Ahlrichs; Phys. Chem. Chem. Phys. 7, 3297(2005).

ECP basis sets for Pb [DEF2-TZVP] have been obtained from:
  Turbomole basis set library
  ftp://ftp.chemie.uni-karlsruhe.de/pub/basen/


WARNING: Gradients are needed
  ===> : At least TightSCF should be used for SCF convergence


INFO   : the flag for use of LIBINT has been found!

================================================================================
                                       INPUT FILE
================================================================================
NAME = ts_24_high.orca
|  1> ! PW6B95 def2-TZVP GCP(DFT/TZ) ECP{def2-TZVP} Grid7 MORead
|  2> %pal nprocs 2 end
|  3> %method
|  4>  RunTyp Gradient
|  5>  end
|  6> %maxcore 2000
|  7> %moinp "previous.gbw"
|  8> *xyz -1 1
|  9> Pb 1.361952 0.760627 0.779324 
| 10> Cl -0.890403 -0.266062 0.165377 
| 11> Cl 0.895595 1.189151 3.328832 
| 12> Cl 1.211279 3.048344 -0.144333 
| 13> *
| 14> 
| 15>                          ****END OF INPUT****
================================================================================

                     *******************************
                     * Energy+Gradient Calculation *
                     *******************************

---------------------------------
CARTESIAN COORDINATES (ANGSTROEM)
---------------------------------
  Pb     1.361952    0.760627    0.779324
  Cl    -0.890403   -0.266062    0.165377
  Cl     0.895595    1.189151    3.328832
  Cl     1.211279    3.048344   -0.144333

----------------------------
CARTESIAN COORDINATES (A.U.)
----------------------------
  NO LB      ZA    FRAG    MASS        X           Y           Z
   0 Pb   22.0000*   0   207.200  2.573716287546317  1.437376720066120  1.472708929592045
   1 Cl   17.0000    0    35.453         -1.682617818821884         -0.502784314643356          0.312517238849495
   2 Cl   17.0000    0    35.453          1.692429276909204          2.247169721878591          6.290580825833348
   3 Cl   17.0000    0    35.453          2.288985581770000          5.760535321982045         -0.272749842087256
* core charge reduced due to ECP

--------------------------------
INTERNAL COORDINATES (ANGSTROEM)
--------------------------------
 Pb     0   0   0   0.000000     0.000     0.000
 Cl     1   0   0   2.550318     0.000     0.000
 Cl     1   2   0   2.626997    98.194     0.000
 Cl     1   2   3   2.471739   103.227   255.977

---------------------------
INTERNAL COORDINATES (A.U.)
---------------------------
 Pb     0   0   0   0.000000     0.000     0.000
 Cl     1   0   0   4.819403     0.000     0.000
 Cl     1   2   0   4.964305    98.194     0.000
 Cl     1   2   3   4.670910   103.227   255.977

---------------------
BASIS SET INFORMATION
---------------------
There are 2 groups of distinct atoms

 Group   1 Type Pb  : 10s9p8d2f contracted to 6s5p3d2f pattern {421111/33111/611/11}
 Group   2 Type Cl  : 14s9p3d1f contracted to 5s5p2d1f pattern {73211/51111/21/1}

Atom   0Pb   basis set group =>   1
Atom   1Cl   basis set group =>   2
Atom   2Cl   basis set group =>   2
Atom   3Cl   basis set group =>   2

-------------------------
ECP PARAMETER INFORMATION
-------------------------

 Group 1, Type Pb ECP SD(60,MDF) (replacing 60 core electrons, lmax=5)

Atom   0Pb   ECP group =>   1




           ************************************************************
           *        Program running with 2 parallel MPI-processes     *
           *              working on a common directory               *
           ************************************************************
------------------------------------------------------------------------------
                           ORCA GTO INTEGRAL CALCULATION
------------------------------------------------------------------------------

                         BASIS SET STATISTICS AND STARTUP INFO

 # of primitive gaussian shells          ...  110
 # of primitive gaussian functions       ...  280
 # of contracted shell                   ...   55
 # of contracted basis functions         ...  161
 Highest angular momentum                ...    3
 Maximum contraction depth               ...    7
 Integral package used                   ... LIBINT
 Integral threshhold            Thresh   ...  1.000e-10
 Primitive cut-off              TCut     ...  1.000e-11


                              INTEGRAL EVALUATION

 One electron integrals    
   ECP integrals                                       ... done
 Pre-screening matrix                    ... done
 Shell pair data                         ... done (   0.001 sec)

           ************************************************************
           *              Shut down parallel processing               *
           ************************************************************


           ************************************************************
           *        Program running with 2 parallel MPI-processes     *
           *              working on a common directory               *
           ************************************************************
-------------------------------------------------------------------------------
                                 ORCA SCF
-------------------------------------------------------------------------------

------------
SCF SETTINGS
------------
Hamiltonian:
 Density Functional     Method          .... DFT(GTOs)
 Exchange Functional    Exchange        .... PW6
 Correlation Functional Correlation     .... B95
 Gradients option       PostSCFGGA      .... off
 Hybrid DFT is turned on
   Fraction HF Exchange ScalHFX         ....  0.280000
   Scaling of DF-GGA-X  ScalDFX         ....  0.720000
   Scaling of DF-GGA-C  ScalDFC         ....  1.000000
   Scaling of DF-LDA-C  ScalLDAC        ....  1.000000
   Perturbative correction              ....  0.000000
   NL short-range parameter             ....  9.000000


General Settings:
 Integral files         IntName         .... ts_24_high.orca
 Hartree-Fock type      HFTyp           .... RHF
 Total Charge           Charge          ....   -1
 Multiplicity           Mult            ....    1
 Number of Electrons    NEL             ....   74
 Basis Dimension        Dim             ....  161
 Nuclear Repulsion      ENuc            ....    349.6331277634 Eh

Convergence Acceleration:
 DIIS                   CNVDIIS         .... on
   Start iteration      DIISMaxIt       ....    12
   Startup error        DIISStart       ....  0.200000
   # of expansion vecs  DIISMaxEq       ....     5
   Bias factor          DIISBfac        ....   1.050
   Max. coefficient     DIISMaxC        ....  10.000
 Newton-Raphson         CNVNR           .... off
 SOSCF                  CNVSOSCF        .... on
   Start iteration      SOSCFMaxIt      ....   150
   Startup grad/error   SOSCFStart      ....  0.003300
 Level Shifting         CNVShift        .... on
   Level shift para.    LevelShift      ....    0.2500
   Turn off err/grad.   ShiftErr        ....    0.0010
 Zerner damping         CNVZerner       .... off
 Static damping         CNVDamp         .... on
   Fraction old density DampFac         ....    0.7000
   Max. Damping (<1)    DampMax         ....    0.9800
   Min. Damping (>=0)   DampMin         ....    0.0000
   Turn off err/grad.   DampErr         ....    0.1000
 Fernandez-Rico         CNVRico         .... off

SCF Procedure:
 Maximum # iterations   MaxIter         ....   125
 SCF integral mode      SCFMode         .... Direct
   Integral package                     .... LIBINT
 Reset frequeny         DirectResetFreq ....    20
 Integral Threshold     Thresh          ....  1.000e-10 Eh
 Primitive CutOff       TCut            ....  1.000e-11 Eh

Convergence Tolerance:
 Convergence Check Mode ConvCheckMode   .... Total+1el-Energy
 Energy Change          TolE            ....  1.000e-06 Eh
 1-El. energy change                    ....  1.000e-03 Eh
 Orbital Gradient       TolG            ....  5.000e-05
 Orbital Rotation angle TolX            ....  5.000e-05
 DIIS Error             TolErr          ....  1.000e-06


Diagonalization of the overlap matrix:
Smallest eigenvalue                        ... 8.195e-03
Time for diagonalization                   ...    0.098 sec
Threshold for overlap eigenvalues          ... 1.000e-08
Number of eigenvalues below threshold      ... 0
Time for construction of square roots      ...    0.180 sec
Total time needed                          ...    0.278 sec

---------------------
INITIAL GUESS: MOREAD
---------------------
Guess MOs are being read from file: previous.gbw
Input Geometry matches current geometry (good)
Input basis set matches current basis set (good)
MOs were renormalized
MOs were reorthogonalized (Schmidt)
                      ------------------
                      INITIAL GUESS DONE (   0.4 sec)
                      ------------------
-------------------
DFT GRID GENERATION
-------------------

General Integration Accuracy     IntAcc      ...  5.670
Radial Grid Type                 RadialGrid  ... Gauss-Chebyshev
Angular Grid (max. acc.)         AngularGrid ... Lebedev-770
Angular grid pruning method      GridPruning ... 3 (G Style)
Weight generation scheme         WeightScheme... Becke
Basis function cutoff            BFCut       ...    1.0000e-10
Integration weight cutoff        WCut        ...    1.0000e-14
Grids for H and He will be reduced by one unit

# of grid points (after initial pruning)     ... 122646 (   0.1 sec)
# of grid points (after weights+screening)   ... 121603 (   0.3 sec)
nearest neighbour list constructed           ...    0.0 sec
Grid point re-assignment to atoms done       ...    0.0 sec
Grid point division into batches done        ...   20.8 sec
Reduced shell lists constructed in   23.9 sec

Total number of grid points                  ...   121603
Total number of batches                      ...     1903
Average number of points per batch           ...       63
Average number of grid points per atom       ...    30401
Average number of shells per batch           ...    28.81 (52.38%)
Average number of basis functions per batch  ...    94.48 (58.68%)
Average number of large shells per batch     ...    22.91 (79.50%)
Average number of large basis fcns per batch ...    74.11 (78.44%)
Maximum spatial batch extension              ...  25.76, 25.04, 25.04 au
Average spatial batch extension              ...   1.10,  1.14,  1.14 au

Time for grid setup =   25.435 sec

--------------
SCF ITERATIONS
--------------
ITER       Energy         Delta-E        Max-DP      RMS-DP      [F,P]     Damp
               ***  Starting incremental Fock matrix formation  ***
  0  -1574.9292015262   0.000000000000 0.03814213  0.00042519  0.0447197 0.7000
                      *** Initiating the SOSCF procedure ***
                      *** Re-Reading the Fockian *** 
                      *** Removing any level shift *** 
ITER      Energy       Delta-E        Grad      Rot      Max-DP    RMS-DP
  1  -1574.93050834  -0.0013068110  0.002726  0.002726  0.093241  0.001128
               *** Restarting incremental Fock matrix formation ***
  2  -1574.93348729  -0.0029789521  0.002676  0.002854  0.015754  0.000261
  3  -1574.93357358  -0.0000862893  0.001682  0.001902  0.011455  0.000137
  4  -1574.93362115  -0.0000475726  0.000483  0.000501  0.000944  0.000027
  5  -1574.93362241  -0.0000012597  0.000266  0.000211  0.000872  0.000017
  6  -1574.93362442  -0.0000020141  0.000038  0.000094  0.000088  0.000003
  7  -1574.93362443  -0.0000000087  0.000016  0.000028  0.000052  0.000001
                 **** Energy Check signals convergence ****
              ***Rediagonalizing the Fockian in SOSCF/NRSCF***

               *****************************************************
               *                     SUCCESS                       *
               *           SCF CONVERGED AFTER   8 CYCLES          *
               *****************************************************


----------------
TOTAL SCF ENERGY
----------------

Total Energy       :        -1574.93362444 Eh          -42856.12268 eV

Components:
Nuclear Repulsion  :          349.63312776 Eh            9514.00109 eV
Electronic Energy  :        -1924.56675221 Eh          -52370.12377 eV

One Electron Energy:        -2956.39494182 Eh          -80447.59624 eV
Two Electron Energy:         1031.82818961 Eh           28077.47247 eV

Virial components:
Potential Energy   :        -3017.45895596 Eh          -82109.23254 eV
Kinetic Energy     :         1442.52533151 Eh           39253.10986 eV
Virial Ratio       :            2.09178923


DFT components:
N(Alpha)           :       37.000000040319 electrons
N(Beta)            :       37.000000040319 electrons
N(Total)           :       74.000000080638 electrons
E(X)               :      -71.655602355905 Eh       
E(C)               :       -3.266713922207 Eh       
E(XC)              :      -74.922316278112 Eh       

---------------
SCF CONVERGENCE
---------------

  Last Energy change         ...   -1.0424e-08  Tolerance :   1.0000e-06
  Last MAX-Density change    ...    9.5650e-06  Tolerance :   1.0000e-05
  Last RMS-Density change    ...    2.9462e-07  Tolerance :   1.0000e-06
  Last Orbital Gradient      ...    7.3273e-06  Tolerance :   5.0000e-05
  Last Orbital Rotation      ...    2.8549e-06  Tolerance :   5.0000e-05

             **** THE GBW FILE WAS UPDATED (ts_24_high.orca.gbw) ****
             **** DENSITY FILE WAS UPDATED (ts_24_high.orca.scfp.tmp) ****
             **** ENERGY FILE WAS UPDATED (ts_24_high.orca.en.tmp) ****
----------------
ORBITAL ENERGIES
----------------

  NO   OCC          E(Eh)            E(eV) 
   0   2.0000    -101.726957     -2768.1312 
   1   2.0000    -101.717275     -2767.8678 
   2   2.0000    -101.708813     -2767.6375 
   3   2.0000      -9.368288      -254.9241 
   4   2.0000      -9.358010      -254.6444 
   5   2.0000      -9.349097      -254.4019 
   6   2.0000      -7.097871      -193.1429 
   7   2.0000      -7.095149      -193.0688 
   8   2.0000      -7.095124      -193.0681 
   9   2.0000      -7.087645      -192.8646 
  10   2.0000      -7.084934      -192.7909 
  11   2.0000      -7.084896      -192.7898 
  12   2.0000      -7.078752      -192.6226 
  13   2.0000      -7.076076      -192.5498 
  14   2.0000      -7.076031      -192.5486 
  15   2.0000      -5.410521      -147.2278 
  16   2.0000      -3.234289       -88.0095 
  17   2.0000      -3.233869       -87.9981 
  18   2.0000      -3.233656       -87.9923 
  19   2.0000      -0.736381       -20.0379 
  20   2.0000      -0.732029       -19.9195 
  21   2.0000      -0.725342       -19.7375 
  22   2.0000      -0.724863       -19.7245 
  23   2.0000      -0.724721       -19.7207 
  24   2.0000      -0.642892       -17.4940 
  25   2.0000      -0.622615       -16.9422 
  26   2.0000      -0.612602       -16.6698 
  27   2.0000      -0.358890        -9.7659 
  28   2.0000      -0.197017        -5.3611 
  29   2.0000      -0.187494        -5.1020 
  30   2.0000      -0.173726        -4.7273 
  31   2.0000      -0.158677        -4.3178 
  32   2.0000      -0.154892        -4.2148 
  33   2.0000      -0.149302        -4.0627 
  34   2.0000      -0.141350        -3.8463 
  35   2.0000      -0.138346        -3.7646 
  36   2.0000      -0.111517        -3.0345 
  37   0.0000       0.114891         3.1263 
  38   0.0000       0.128002         3.4831 
  39   0.0000       0.138168         3.7597 
  40   0.0000       0.231779         6.3070 
  41   0.0000       0.241432         6.5697 
  42   0.0000       0.247481         6.7343 
  43   0.0000       0.353266         9.6129 
  44   0.0000       0.361703         9.8424 
  45   0.0000       0.363817         9.9000 
  46   0.0000       0.372181        10.1276 
  47   0.0000       0.378653        10.3037 
  48   0.0000       0.381344        10.3769 
  49   0.0000       0.478630        13.0242 
  50   0.0000       0.511249        13.9118 
  51   0.0000       0.512857        13.9555 
  52   0.0000       0.526997        14.3403 
  53   0.0000       0.528530        14.3820 
  54   0.0000       0.539925        14.6921 
  55   0.0000       0.547641        14.9021 
  56   0.0000       0.555813        15.1244 
  57   0.0000       0.562378        15.3031 
  58   0.0000       0.593052        16.1378 
  59   0.0000       0.598557        16.2876 
  60   0.0000       0.608539        16.5592 
  61   0.0000       0.612243        16.6600 
  62   0.0000       0.636692        17.3253 
  63   0.0000       0.639779        17.4093 
  64   0.0000       0.653247        17.7758 
  65   0.0000       0.667022        18.1506 
  66   0.0000       0.672164        18.2905 
  67   0.0000       0.685786        18.6612 
  68   0.0000       0.688498        18.7350 
  69   0.0000       0.709733        19.3128 
  70   0.0000       0.729177        19.8419 
  71   0.0000       0.733798        19.9677 
  72   0.0000       0.754289        20.5253 
  73   0.0000       0.846596        23.0371 
  74   0.0000       0.915221        24.9044 
  75   0.0000       0.930042        25.3077 
  76   0.0000       0.944625        25.7046 
  77   0.0000       0.952763        25.9260 
  78   0.0000       0.960852        26.1461 
  79   0.0000       0.974273        26.5113 
  80   0.0000       0.985897        26.8276 
  81   0.0000       0.995175        27.0801 
  82   0.0000       1.000991        27.2383 
  83   0.0000       1.137763        30.9601 
  84   0.0000       1.140972        31.0474 
  85   0.0000       1.143474        31.1155 
  86   0.0000       1.166048        31.7298 
  87   0.0000       1.176828        32.0231 
  88   0.0000       1.316445        35.8223 
  89   0.0000       1.351807        36.7845 
  90   0.0000       1.382480        37.6192 
  91   0.0000       1.928207        52.4692 
  92   0.0000       1.935045        52.6553 
  93   0.0000       1.936805        52.7031 
  94   0.0000       1.943263        52.8789 
  95   0.0000       1.950440        53.0742 
  96   0.0000       1.956332        53.2345 
  97   0.0000       1.974069        53.7172 
  98   0.0000       1.987184        54.0740 
  99   0.0000       1.988912        54.1211 
 100   0.0000       2.047974        55.7282 
 101   0.0000       2.059085        56.0305 
 102   0.0000       2.060513        56.0694 
 103   0.0000       2.074864        56.4599 
 104   0.0000       2.104115        57.2559 
 105   0.0000       2.117650        57.6242 
 106   0.0000       2.154819        58.6356 
 107   0.0000       2.167257        58.9741 
 108   0.0000       2.169921        59.0465 
 109   0.0000       2.171366        59.0859 
 110   0.0000       2.212344        60.2009 
 111   0.0000       2.217994        60.3547 
 112   0.0000       2.262017        61.5526 
 113   0.0000       2.264679        61.6250 
 114   0.0000       2.267237        61.6947 
 115   0.0000       2.267388        61.6988 
 116   0.0000       2.272290        61.8322 
 117   0.0000       2.276283        61.9408 
 118   0.0000       2.278244        61.9942 
 119   0.0000       2.278941        62.0131 
 120   0.0000       2.284679        62.1693 
 121   0.0000       2.287194        62.2377 
 122   0.0000       2.287824        62.2549 
 123   0.0000       2.288689        62.2784 
 124   0.0000       2.296675        62.4957 
 125   0.0000       2.359277        64.1992 
 126   0.0000       2.393574        65.1325 
 127   0.0000       2.394204        65.1496 
 128   0.0000       2.407801        65.5196 
 129   0.0000       2.413552        65.6761 
 130   0.0000       2.417173        65.7746 
 131   0.0000       2.427606        66.0585 
 132   0.0000       2.439854        66.3918 
 133   0.0000       2.446189        66.5642 
 134   0.0000       2.464944        67.0745 
 135   0.0000       2.485760        67.6410 
 136   0.0000       2.523894        68.6787 
 137   0.0000       2.547474        69.3203 
 138   0.0000       2.578041        70.1521 
 139   0.0000       2.586364        70.3785 
 140   0.0000       2.616883        71.2090 
 141   0.0000       2.881571        78.4115 
 142   0.0000       2.896733        78.8241 
 143   0.0000       3.312707        90.1433 
 144   0.0000      10.891302       296.3674 
 145   0.0000      10.891585       296.3751 
 146   0.0000      10.906893       296.7916 
 147   0.0000      10.921395       297.1863 
 148   0.0000      10.928731       297.3859 
 149   0.0000      10.932609       297.4914 
 150   0.0000      10.996250       299.2232 
 151   0.0000      11.040513       300.4276 
 152   0.0000      11.055384       300.8323 
 153   0.0000      24.936523       678.5573 
 154   0.0000      25.015535       680.7073 
 155   0.0000      25.075175       682.3302 
 156   0.0000      35.468585       965.1493 
 157   0.0000      35.805831       974.3262 
 158   0.0000      35.835844       975.1429 
 159   0.0000      35.872795       976.1484 
 160   0.0000     124.896887      3398.6171 

                    ********************************
                    * MULLIKEN POPULATION ANALYSIS *
                    ********************************

-----------------------
MULLIKEN ATOMIC CHARGES
-----------------------
   0 Pb:    0.723393
   1 Cl:   -0.574580
   2 Cl:   -0.595348
   3 Cl:   -0.553466
Sum of atomic charges:   -1.0000000

--------------------------------
MULLIKEN REDUCED ORBITAL CHARGES
--------------------------------
  0 Pbs       :     3.903323  s :     3.903323
      pz      :     2.346090  p :     7.164333
      px      :     2.436326
      py      :     2.381917
      dz2     :     2.032282  d :    10.147605
      dxz     :     2.027982
      dyz     :     2.034126
      dx2y2   :     2.021890
      dxy     :     2.031324
      f0      :     0.010869  f :     0.061346
      f+1     :     0.007993
      f-1     :     0.010480
      f+2     :     0.007777
      f-2     :     0.005489
      f+3     :     0.009485
      f-3     :     0.009251
  1 Cls       :     5.949934  s :     5.949934
      pz      :     3.926801  p :    11.609472
      px      :     3.785511
      py      :     3.897160
      dz2     :     0.002101  d :     0.014385
      dxz     :     0.002776
      dyz     :     0.000632
      dx2y2   :     0.004381
      dxy     :     0.004495
      f0      :     0.000080  f :     0.000788
      f+1     :     0.000118
      f-1     :     0.000032
      f+2     :     0.000076
      f-2     :     0.000100
      f+3     :     0.000151
      f-3     :     0.000231
  2 Cls       :     5.953717  s :     5.953717
      pz      :     3.746137  p :    11.629108
      px      :     3.940150
      py      :     3.942821
      dz2     :     0.006758  d :     0.011901
      dxz     :     0.002485
      dyz     :     0.002216
      dx2y2   :     0.000204
      dxy     :     0.000237
      f0      :     0.000290  f :     0.000623
      f+1     :     0.000149
      f-1     :     0.000141
      f+2     :     0.000019
      f-2     :     0.000022
      f+3     :     0.000001
      f-3     :     0.000001
  3 Cls       :     5.945812  s :     5.945812
      pz      :     3.899078  p :    11.589263
      px      :     3.932561
      py      :     3.757625
      dz2     :     0.002120  d :     0.017378
      dxz     :     0.000471
      dyz     :     0.005345
      dx2y2   :     0.006434
      dxy     :     0.003008
      f0      :     0.000112  f :     0.001012
      f+1     :     0.000004
      f-1     :     0.000172
      f+2     :     0.000251
      f-2     :     0.000074
      f+3     :     0.000163
      f-3     :     0.000237


                     *******************************
                     * LOEWDIN POPULATION ANALYSIS *
                     *******************************

----------------------
LOEWDIN ATOMIC CHARGES
----------------------
   0 Pb:   -0.186031
   1 Cl:   -0.272652
   2 Cl:   -0.324789
   3 Cl:   -0.216528

-------------------------------
LOEWDIN REDUCED ORBITAL CHARGES
-------------------------------
  0 Pbs       :     3.734110  s :     3.734110
      pz      :     2.497370  p :     7.648403
      px      :     2.592747
      py      :     2.558286
      dz2     :     2.154826  d :    10.616799
      dxz     :     2.092949
      dyz     :     2.124963
      dx2y2   :     2.127299
      dxy     :     2.116764
      f0      :     0.039576  f :     0.186719
      f+1     :     0.021555
      f-1     :     0.026258
      f+2     :     0.025416
      f-2     :     0.014547
      f+3     :     0.022880
      f-3     :     0.036487
  1 Cls       :     5.769651  s :     5.769651
      pz      :     3.879125  p :    11.473887
      px      :     3.745476
      py      :     3.849286
      dz2     :     0.004532  d :     0.027491
      dxz     :     0.004175
      dyz     :     0.000784
      dx2y2   :     0.010101
      dxy     :     0.007899
      f0      :     0.000155  f :     0.001623
      f+1     :     0.000262
      f-1     :     0.000051
      f+2     :     0.000157
      f-2     :     0.000155
      f+3     :     0.000251
      f-3     :     0.000592
  2 Cls       :     5.793729  s :     5.793729
      pz      :     3.702381  p :    11.508150
      px      :     3.902163
      py      :     3.903607
      dz2     :     0.013676  d :     0.021722
      dxz     :     0.004214
      dyz     :     0.003350
      dx2y2   :     0.000196
      dxy     :     0.000286
      f0      :     0.000589  f :     0.001188
      f+1     :     0.000295
      f-1     :     0.000243
      f+2     :     0.000021
      f-2     :     0.000039
      f+3     :     0.000001
      f-3     :     0.000001
  3 Cls       :     5.742771  s :     5.742771
      pz      :     3.843613  p :    11.436701
      px      :     3.877628
      py      :     3.715459
      dz2     :     0.004015  d :     0.034807
      dxz     :     0.000651
      dyz     :     0.010273
      dx2y2   :     0.015860
      dxy     :     0.004008
      f0      :     0.000319  f :     0.002250
      f+1     :     0.000004
      f-1     :     0.000237
      f+2     :     0.000649
      f-2     :     0.000106
      f+3     :     0.000246
      f-3     :     0.000688


                      *****************************
                      * MAYER POPULATION ANALYSIS *
                      *****************************

  NA   - Mulliken gross atomic population
  ZA   - Total nuclear charge
  QA   - Mulliken gross atomic charge
  VA   - Mayer's total valence
  BVA  - Mayer's bonded valence
  FA   - Mayer's free valence

  ATOM       NA         ZA         QA         VA         BVA        FA
  0 Pb    21.2766    22.0000     0.7234     2.1414     2.1414     0.0000
  1 Cl    17.5746    17.0000    -0.5746     0.7389     0.7389    -0.0000
  2 Cl    17.5953    17.0000    -0.5953     0.7055     0.7055    -0.0000
  3 Cl    17.5535    17.0000    -0.5535     0.7733     0.7733    -0.0000

  Mayer bond orders larger than 0.1
B(  0-Pb,  1-Cl) :   0.7135 B(  0-Pb,  2-Cl) :   0.6809 B(  0-Pb,  3-Cl) :   0.7470 


-------
TIMINGS
-------

Total SCF time: 0 days 0 hours 5 min 40 sec 

Total time                  ....     340.566 sec
Sum of individual times     ....     338.098 sec  ( 99.3%)

Fock matrix formation       ....     309.489 sec  ( 90.9%)
  Coulomb formation         ....     210.524 sec  ( 68.0% of F)
  XC integration            ....      97.098 sec  ( 31.4% of F)
    Basis function eval.    ....      16.429 sec  ( 16.9% of XC)
    Density eval.           ....      32.209 sec  ( 33.2% of XC)
    XC-Functional eval.     ....       8.999 sec  (  9.3% of XC)
    XC-Potential eval.      ....      31.461 sec  ( 32.4% of XC)
Diagonalization             ....       0.466 sec  (  0.1%)
Density matrix formation    ....       1.263 sec  (  0.4%)
Population analysis         ....       0.243 sec  (  0.1%)
Initial guess               ....       0.416 sec  (  0.1%)
Orbital Transformation      ....       0.000 sec  (  0.0%)
Orbital Orthonormalization  ....       0.167 sec  (  0.0%)
DIIS solution               ....       0.003 sec  (  0.0%)
SOSCF solution              ....       0.783 sec  (  0.2%)
Grid generation             ....      25.435 sec  (  7.5%)
           ************************************************************
           *              Shut down parallel processing               *
           ************************************************************
 ** NOTE ** -> element pb will be treated as ge
Egcp:       0.0017279965 a.u.
NOTIFICATION: Different basis set in ORCA and otool_gcp:
ORCA: 161  gCP: 159 
If you are NOT using ECPs, check your basis set inputs!
------------------   -----------------
gCP correction             0.001727997
------------------   -----------------

-------------------------   --------------------
FINAL SINGLE POINT ENERGY     -1574.931896447507
-------------------------   --------------------



           ************************************************************
           *        Program running with 2 parallel MPI-processes     *
           *              working on a common directory               *
           ************************************************************
------------------------------------------------------------------------------
                         ORCA SCF GRADIENT CALCULATION
------------------------------------------------------------------------------

Gradient of the Kohn-Sham DFT energy:
Kohn-Sham wavefunction type      ... RKS
Hartree-Fock exchange scaling    ...    0.280
Number of operators              ...    1
Number of atoms                  ...    4
Basis set dimensions             ...  161
Integral neglect threshold       ... 1.0e-10
Integral primitive cutoff        ... 1.0e-11

Nuclear repulsion gradient       ... done
One Electron Gradient            
  ECP gradient                   ... done
Pre-screening matrix             ... done
Starting the two electron gradient:
Two electron gradient done
Exchange-correlation gradient    ... done
gCP correction                   ... done

------------------
CARTESIAN GRADIENT
------------------

   1   Pb  :   -0.007797352    0.017349269   -0.012641779
   2   Cl  :    0.005353165    0.001017597    0.002530458
   3   Cl  :   -0.000950604   -0.000376628    0.003347353
   4   Cl  :    0.002796882   -0.017517362    0.006876980

Norm of the cartesian gradient     ...    0.030527515
RMS gradient                       ...    0.008812534
MAX gradient                       ...    0.017517362

-------
TIMINGS
-------

Total SCF gradient time            ...      163.291 sec

One electron gradient       ....       6.101 sec  (  3.7%)
Prescreening matrices       ....       2.894 sec  (  1.8%)
Two electron gradient       ....     111.327 sec  ( 68.2%)
XC gradient                 ....      30.132 sec  ( 18.5%)
           ************************************************************
           *              Shut down parallel processing               *
           ************************************************************

                            ***************************************
                            *     ORCA property calculations      *
                            ***************************************

                                    ---------------------
                                    Active property flags
                                    ---------------------
   (+) Dipole Moment


------------------------------------------------------------------------------
                       ORCA ELECTRIC PROPERTIES CALCULATION
------------------------------------------------------------------------------

Dipole Moment Calculation                       ... on
Quadrupole Moment Calculation                   ... off
Polarizability Calculation                      ... off
GBWName                                         ... ts_24_high.orca.gbw
Electron density file                           ... ts_24_high.orca.scfp.tmp

-------------
DIPOLE MOMENT
-------------
                                X             Y             Z
Electronic contribution:     49.20654     -28.83308     -17.57138
Nuclear contribution   :    -47.42470      27.92462      16.72458
                        -----------------------------------------
Total Dipole Moment    :      1.78184      -0.90846      -0.84680
                        -----------------------------------------
Magnitude (a.u.)       :      2.17194
Magnitude (Debye)      :      5.52063


Timings for individual modules:

Sum of individual times         ...      519.091 sec (=   8.652 min)
GTO integral calculation        ...        4.335 sec (=   0.072 min)   0.8 %
SCF iterations                  ...      347.540 sec (=   5.792 min)  67.0 %
SCF Gradient evaluation         ...      167.215 sec (=   2.787 min)  32.2 %
                             ****ORCA TERMINATED NORMALLY****
TOTAL RUN TIME: 0 days 0 hours 8 minutes 43 seconds 802 msec
