
                                 *****************
                                 * O   R   C   A *
                                 *****************

           --- An Ab Initio, DFT and Semiempirical electronic structure package ---

                  #######################################################
                  #                        -***-                        #
                  #  Department of molecular theory and spectroscopy    #
                  #              Directorship: Frank Neese              #
                  # Max Planck Institute for Chemical Energy Conversion #
                  #                  D-45470 Muelheim/Ruhr              #
                  #                       Germany                       #
                  #                                                     #
                  #                  All rights reserved                #
                  #                        -***-                        #
                  #######################################################


                         Program Version 3.0.3 - RELEASE   -


 With contributions from (in alphabetic order):
   Ute Becker             : Parallelization
   Dmytro Bykov           : SCF Hessian
   Dmitry Ganyushin       : Spin-Orbit,Spin-Spin,Magnetic field MRCI
   Andreas Hansen         : Spin unrestricted coupled pair/coupled cluster methods
   Dimitrios Liakos       : Extrapolation schemes; parallel MDCI
   Robert Izsak           : Overlap fitted RIJCOSX, COSX-SCS-MP3
   Christian Kollmar      : KDIIS, OOCD, Brueckner-CCSD(T), CCSD density
   Simone Kossmann        : Meta GGA functionals, TD-DFT gradient, OOMP2, MP2 Hessian
   Taras Petrenko         : DFT Hessian,TD-DFT gradient, ASA and ECA modules, normal mode analysis, Resonance Raman, ABS, FL, XAS/XES, NRVS
   Christoph Reimann      : Effective Core Potentials
   Michael Roemelt        : Restricted open shell CIS
   Christoph Riplinger    : Improved optimizer, TS searches, QM/MM, DLPNO-CCSD
   Barbara Sandhoefer     : DKH picture change effects
   Igor Schapiro          : Molecular dynamics
   Kantharuban Sivalingam : CASSCF convergence, NEVPT2
   Boris Wezisla          : Elementary symmetry handling
   Frank Wennmohs         : Technical directorship


 We gratefully acknowledge several colleagues who have allowed us to
 interface, adapt or use parts of their codes:
   Stefan Grimme, W. Hujo, H. Kruse, T. Risthaus : VdW corrections, initial TS optimization,
                                                   DFT functionals, gCP
   Ed Valeev                                     : LibInt (2-el integral package), F12 methods
   Garnet Chan, S. Sharma, R. Olivares           : DMRG
   Ulf Ekstrom                                   : XCFun DFT Library
   Mihaly Kallay                                 : mrcc  (arbitrary order and MRCC methods)
   Andreas Klamt, Michael Diedenhofen            : otool_cosmo (COSMO solvation model)
   Frank Weinhold                                : gennbo (NPA and NBO analysis)
   Christopher J. Cramer and Donald G. Truhlar   : smd solvation model


 Your calculation uses the libint2 library for the computation of 2-el integrals
 For citations please refer to: http://libint.valeyev.net

 This ORCA versions uses:
   CBLAS   interface :  Fast vector & matrix operations
   LAPACKE interface :  Fast linear algebra routines
   SCALAPACK package :  Parallel linear algebra routines


Your calculation utilizes the basis: Ahlrichs-TZV
Cite in your paper:
H - Kr: A. Schaefer, H. Horn and R. Ahlrichs, J. Chem. Phys. 97, 2571 (1992).

The def2-TZV basis will be loaded
Cite in your paper:
 	F. Weigend, R. Ahlrichs, Phys. Chem. Chem. Phys. 2005, 7, 3297.

Your calculation utilizes the atom-pairwise dispersion correction
with the Becke-Johnson damping scheme (D3BJ)
Cite in your paper:
S.Grimme, S.Ehrlich, L.Goerigk, J Comput Chem, (2011), 32, 1456–1465 
S.Grimme, J.Antony, S.Ehrlich and H.Krieg, J.Chem.Phys., 132, (2010), 154104 
   

================================================================================
                                        WARNINGS
                       Please study these warnings very carefully!
================================================================================

WARNING: The RI method has been chosen with no auxiliary basis (AUX or GTOAUX in BASIS block)
        Standard TZV/J expansion basis used (GTOAUX=TZV_J)

Now building the actual basis set
cite the ECPs for Pb [SD(60,MDF)] as follows:
  B. Metz, H. Stoll, M. Dolg, J. Chem. Phys. 113, 2563 (2000).

ECP parameters for Pb [SD(60,MDF)] have been obtained from:
  pseudopotential library of the Stuttgart/Cologne group
  http://www.theochem.uni-stuttgart.de/pseudopotentials/

cite the ECP basis sets for Pb [DEF2-TZVP] as follows:
  F. Weigend, R. Ahlrichs; Phys. Chem. Chem. Phys. 7, 3297(2005).

ECP basis sets for Pb [DEF2-TZVP] have been obtained from:
  Turbomole basis set library
  ftp://ftp.chemie.uni-karlsruhe.de/pub/basen/



INFO   : the flag for use of LIBINT has been found!

================================================================================
                                       INPUT FILE
================================================================================
NAME = PbMACl3_mp2_md2_13.orca
|  1> ! RIJCOSX RI-B2PLYP D3BJ def2-TZVP ECP{def2-TZVP} TIGHTSCF Grid5 FinalGrid6 SlowConv MORead
|  2> %method
|  3>  RunTyp Gradient
|  4>  end
|  5> %maxcore 1000
|  6> %moinp "previous.gbw"
|  7> *xyz 0 1
|  8> C -0.394281 0.276013 -0.426662 
|  9> N -1.165380 -0.685592 -1.253010 
| 10> H 0.248796 -0.278576 0.260517 
| 11> H -1.090820 0.897444 0.140826 
| 12> H 0.215705 0.904875 -1.079130 
| 13> H -1.783150 -1.324970 -0.698370 
| 14> H -0.582260 -1.326300 -1.835140 
| 15> H -1.813140 -0.240924 -1.938260 
| 16> Pb -2.758930 -2.774190 -3.014130 
| 17> Cl -0.913606 -3.065070 -1.364940 
| 18> Cl -3.426310 -0.920284 -1.398330 
| 19> Cl -2.697310 -3.147860 -0.564565 
| 20> *
| 21> 
| 22>                          ****END OF INPUT****
================================================================================

                     *******************************
                     * Energy+Gradient Calculation *
                     *******************************

---------------------------------
CARTESIAN COORDINATES (ANGSTROEM)
---------------------------------
  C     -0.394281    0.276013   -0.426662
  N     -1.165380   -0.685592   -1.253010
  H      0.248796   -0.278576    0.260517
  H     -1.090820    0.897444    0.140826
  H      0.215705    0.904875   -1.079130
  H     -1.783150   -1.324970   -0.698370
  H     -0.582260   -1.326300   -1.835140
  H     -1.813140   -0.240924   -1.938260
  Pb    -2.758930   -2.774190   -3.014130
  Cl    -0.913606   -3.065070   -1.364940
  Cl    -3.426310   -0.920284   -1.398330
  Cl    -2.697310   -3.147860   -0.564565

----------------------------
CARTESIAN COORDINATES (A.U.)
----------------------------
  NO LB      ZA    FRAG    MASS        X           Y           Z
   0 C     6.0000    0    12.011         -0.745083109808605          0.521588979402006         -0.806274331751109
   1 N     7.0000    0    14.007         -2.202249041949148         -1.295581119607339         -2.367845743064668
   2 H     1.0000    0     1.008          0.470156303215072         -0.526432347483247          0.492305783230763
   3 H     1.0000    0     1.008         -2.061351061403979          1.695923380530824          0.266122572535594
   4 H     1.0000    0     1.008          0.407623375717484          1.709965935431992         -2.039260162898440
   5 H     1.0000    0     1.008         -3.369665155701680         -2.503830435661641         -1.319728040146585
   6 H     1.0000    0     1.008         -1.100311938736988         -2.506343771419756         -3.467912017404246
   7 H     1.0000    0     1.008         -3.426338042457978         -0.455280379088844         -3.662780576334205
   8 Pb   22.0000*   0   207.200  -5.213622122659358  -5.242459343462997  -5.695880232036063
   9 Cl   17.0000    0    35.453         -1.726465134307259         -5.792142881298011         -2.579362789234473
  10 Cl   17.0000    0    35.453         -6.474787549915724         -1.739084725429585         -2.642460744846104
  11 Cl   17.0000    0    35.453         -5.097177198287131         -5.948593307925352         -1.066873234797251
* core charge reduced due to ECP

--------------------------------
INTERNAL COORDINATES (ANGSTROEM)
--------------------------------
 C      0   0   0   0.000000     0.000     0.000
 N      1   0   0   1.483957     0.000     0.000
 H      1   2   0   1.092397   109.099     0.000
 H      1   2   3   1.092422   109.061   240.173
 H      1   2   3   1.092367   109.305   120.114
 H      2   1   3   1.047888   114.015    60.210
 H      2   1   3   1.043749   114.711   299.789
 H      2   1   3   1.042540   114.361   179.708
 Pb     7   2   1   2.867803    96.614   179.457
 Cl     7   2   1   1.831447   109.787   119.794
 Cl     6   2   1   1.831308   101.060   120.709
 Cl    10   7   2   1.956797   108.065    24.133

---------------------------
INTERNAL COORDINATES (A.U.)
---------------------------
 C      0   0   0   0.000000     0.000     0.000
 N      1   0   0   2.804273     0.000     0.000
 H      1   2   0   2.064332   109.099     0.000
 H      1   2   3   2.064378   109.061   240.173
 H      1   2   3   2.064274   109.305   120.114
 H      2   1   3   1.980222   114.015    60.210
 H      2   1   3   1.972399   114.711   299.789
 H      2   1   3   1.970116   114.361   179.708
 Pb     7   2   1   5.419363    96.614   179.457
 Cl     7   2   1   3.460934   109.787   119.794
 Cl     6   2   1   3.460671   101.060   120.709
 Cl    10   7   2   3.697810   108.065    24.133

---------------------
BASIS SET INFORMATION
---------------------
There are 5 groups of distinct atoms

 Group   1 Type C   : 11s6p2d1f contracted to 5s3p2d1f pattern {62111/411/11/1}
 Group   2 Type N   : 11s6p2d1f contracted to 5s3p2d1f pattern {62111/411/11/1}
 Group   3 Type H   : 5s1p contracted to 3s1p pattern {311/1}
 Group   4 Type Pb  : 10s9p8d2f contracted to 6s5p3d2f pattern {421111/33111/611/11}
 Group   5 Type Cl  : 14s9p3d1f contracted to 5s5p2d1f pattern {73211/51111/21/1}

Atom   0C    basis set group =>   1
Atom   1N    basis set group =>   2
Atom   2H    basis set group =>   3
Atom   3H    basis set group =>   3
Atom   4H    basis set group =>   3
Atom   5H    basis set group =>   3
Atom   6H    basis set group =>   3
Atom   7H    basis set group =>   3
Atom   8Pb   basis set group =>   4
Atom   9Cl   basis set group =>   5
Atom  10Cl   basis set group =>   5
Atom  11Cl   basis set group =>   5
-------------------------------
AUXILIARY BASIS SET INFORMATION
-------------------------------
There are 5 groups of distinct atoms

 Group   1 Type C   : 12s5p4d2f1g contracted to 6s4p3d1f1g pattern {711111/2111/211/2/1}
 Group   2 Type N   : 12s5p4d2f1g contracted to 6s4p3d1f1g pattern {711111/2111/211/2/1}
 Group   3 Type H   : 5s2p1d contracted to 3s1p1d pattern {311/2/1}
 Group   4 Type Pb  : 31s12p8d6f3g contracted to 31s12p8d6f3g pattern {1111111111111111111111111111111/111111111111/11111111/111111/111}
 Group   5 Type Cl  : 14s5p5d2f1g contracted to 8s4p3d1f1g pattern {71111111/2111/311/2/1}

Atom   0C    basis set group =>   1
Atom   1N    basis set group =>   2
Atom   2H    basis set group =>   3
Atom   3H    basis set group =>   3
Atom   4H    basis set group =>   3
Atom   5H    basis set group =>   3
Atom   6H    basis set group =>   3
Atom   7H    basis set group =>   3
Atom   8Pb   basis set group =>   4
Atom   9Cl   basis set group =>   5
Atom  10Cl   basis set group =>   5
Atom  11Cl   basis set group =>   5

-------------------------
ECP PARAMETER INFORMATION
-------------------------

 Group 1, Type Pb ECP SD(60,MDF) (replacing 60 core electrons, lmax=5)

Atom   8Pb   ECP group =>   1


------------------------------------------------------------------------------
                           ORCA GTO INTEGRAL CALCULATION
                           -- RI-GTO INTEGRALS CHOSEN --
------------------------------------------------------------------------------

                         BASIS SET STATISTICS AND STARTUP INFO

Gaussian basis set:
 # of primitive gaussian shells          ...  186
 # of primitive gaussian functions       ...  420
 # of contracted shells                  ...  101
 # of contracted basis functions         ...  259
 Highest angular momentum                ...    3
 Maximum contraction depth               ...    7
Auxiliary gaussian basis set:
 # of primitive gaussian shells          ...  237
 # of primitive gaussian functions       ...  643
 # of contracted shells                  ...  171
 # of contracted aux-basis functions     ...  493
 Highest angular momentum                ...    4
 Maximum contraction depth               ...    7
Ratio of auxiliary to basis functions    ...  1.90
Integral package used                  ... LIBINT
 One Electron integrals                  
   ECP integrals                         ... done
 Ordering auxiliary basis shells         ... done
 Integral threshhold             Thresh  ...  2.500e-11
 Primitive cut-off               TCut    ...  2.500e-12
 Pre-screening matrix                    ... done
 Shell pair data                         ... 
 Ordering of the shell pairs             ... done (   0.001 sec) 4664 of 5151 pairs
 Determination of significant pairs      ... done (   0.000 sec)
 Creation of shell pair data             ... done (   0.002 sec)
 Storage of shell pair data              ... done (   0.001 sec)
 Shell pair data done in (   0.004 sec)
 Computing two index integrals           ... done
 Cholesky decomposition of the V-matrix  ... done


Timings:
 Total evaluation time                   ...   0.557 sec (  0.009 min)
 One electron matrix time                ...   0.299 sec (  0.005 min) = 53.6%
 Schwartz matrix evaluation time         ...   0.211 sec (  0.004 min) = 37.9%
 Two index repulsion integral time       ...   0.008 sec (  0.000 min) =  1.5%
 Cholesky decomposition of V             ...   0.008 sec (  0.000 min) =  1.5%
 Three index repulsion integral time     ...   0.000 sec (  0.000 min) =  0.0%

-------------------------------------------------------------------------------
                                 ORCA SCF
-------------------------------------------------------------------------------

------------
SCF SETTINGS
------------
Hamiltonian:
 Density Functional     Method          .... DFT(GTOs)
 Exchange Functional    Exchange        .... B88
   X-Alpha parameter    XAlpha          ....  0.666667
   Becke's b parameter  XBeta           ....  0.004200
 Correlation Functional Correlation     .... LYP
 LDA part of GGA corr.  LDAOpt          .... VWN-3
 Gradients option       PostSCFGGA      .... off
 Hybrid DFT is turned on
   Fraction HF Exchange ScalHFX         ....  0.530000
   Scaling of DF-GGA-X  ScalDFX         ....  0.470000
   Scaling of DF-GGA-C  ScalDFC         ....  0.730000
   Scaling of DF-LDA-C  ScalLDAC        ....  0.730000
   Perturbative correction              ....  0.270000
 RI-approximation to the Coulomb term is turned on
   Number of auxiliary basis functions  .... 493
   RIJ-COSX (HFX calculated with COS-X)).... on


General Settings:
 Integral files         IntName         .... PbMACl3_mp2_md2_13.orca
 Hartree-Fock type      HFTyp           .... RHF
 Total Charge           Charge          ....    0
 Multiplicity           Mult            ....    1
 Number of Electrons    NEL             ....   92
 Basis Dimension        Dim             ....  259
 Nuclear Repulsion      ENuc            ....    704.8764790546 Eh

Convergence Acceleration:
 DIIS                   CNVDIIS         .... on
   Start iteration      DIISMaxIt       ....     0
   Startup error        DIISStart       ....  0.200000
   # of expansion vecs  DIISMaxEq       ....     5
   Bias factor          DIISBfac        ....   1.050
   Max. coefficient     DIISMaxC        ....  10.000
 Newton-Raphson         CNVNR           .... off
 SOSCF                  CNVSOSCF        .... on
   Start iteration      SOSCFMaxIt      ....   150
   Startup grad/error   SOSCFStart      ....  0.001000
 Level Shifting         CNVShift        .... on
   Level shift para.    LevelShift      ....    0.2500
   Turn off err/grad.   ShiftErr        ....    0.0000
 Zerner damping         CNVZerner       .... off
 Static damping         CNVDamp         .... on
   Fraction old density DampFac         ....    0.8500
   Max. Damping (<1)    DampMax         ....    0.9800
   Min. Damping (>=0)   DampMin         ....    0.0000
   Turn off err/grad.   DampErr         ....    0.0300
 Fernandez-Rico         CNVRico         .... off

SCF Procedure:
 Maximum # iterations   MaxIter         ....   125
 SCF integral mode      SCFMode         .... Direct
   Integral package                     .... LIBINT
 Reset frequeny         DirectResetFreq ....    20
 Integral Threshold     Thresh          ....  2.500e-11 Eh
 Primitive CutOff       TCut            ....  2.500e-12 Eh

Convergence Tolerance:
 Convergence Check Mode ConvCheckMode   .... Total+1el-Energy
 Energy Change          TolE            ....  1.000e-08 Eh
 1-El. energy change                    ....  1.000e-05 Eh
 Orbital Gradient       TolG            ....  1.000e-05
 Orbital Rotation angle TolX            ....  1.000e-05
 DIIS Error             TolErr          ....  5.000e-07


Diagonalization of the overlap matrix:
Smallest eigenvalue                        ... 1.031e-03
Time for diagonalization                   ...    0.015 sec
Threshold for overlap eigenvalues          ... 1.000e-08
Number of eigenvalues below threshold      ... 0
Time for construction of square roots      ...    0.005 sec
Total time needed                          ...    0.020 sec

---------------------
INITIAL GUESS: MOREAD
---------------------
Guess MOs are being read from file: previous.gbw
Input geometry compatible with but different from current geometry
Input basis set matches current basis set (good)
MOs were renormalized
MOs were reorthogonalized (Schmidt)
                      ------------------
                      INITIAL GUESS DONE (   0.1 sec)
                      ------------------
-------------------
DFT GRID GENERATION
-------------------

General Integration Accuracy     IntAcc      ...  5.010
Radial Grid Type                 RadialGrid  ... Gauss-Chebyshev
Angular Grid (max. acc.)         AngularGrid ... Lebedev-434
Angular grid pruning method      GridPruning ... 3 (G Style)
Weight generation scheme         WeightScheme... Becke
Basis function cutoff            BFCut       ...    1.0000e-11
Integration weight cutoff        WCut        ...    1.0000e-14
Grids for H and He will be reduced by one unit

# of grid points (after initial pruning)     ... 115882 (   0.0 sec)
# of grid points (after weights+screening)   ... 107718 (   0.2 sec)
nearest neighbour list constructed           ...    0.0 sec
Grid point re-assignment to atoms done       ...    0.0 sec
Grid point division into batches done        ...    0.9 sec
Reduced shell lists constructed in    3.4 sec

Total number of grid points                  ...   107718
Total number of batches                      ...     1688
Average number of points per batch           ...       63
Average number of grid points per atom       ...     8976
Average number of shells per batch           ...    59.48 (58.89%)
Average number of basis functions per batch  ...   160.24 (61.87%)
Average number of large shells per batch     ...    46.27 (77.80%)
Average number of large basis fcns per batch ...   122.14 (76.23%)
Maximum spatial batch extension              ...  35.03, 35.93, 31.13 au
Average spatial batch extension              ...   2.43,  2.37,  2.38 au

Time for grid setup =    3.645 sec

--------------------
COSX GRID GENERATION
--------------------

General Integration Accuracy     IntAcc      ...  3.340
Radial Grid Type                 RadialGrid  ... Gauss-Chebyshev
Angular Grid (max. acc.)         AngularGrid ... Lebedev-50
Angular grid pruning method      GridPruning ... 3 (G Style)
Weight generation scheme         WeightScheme... Becke
Basis function cutoff            BFCut       ...    1.0000e-11
Integration weight cutoff        WCut        ...    1.0000e-14
Grids for H and He will be reduced by one unit

# of grid points (after initial pruning)     ...   6578 (   0.0 sec)
# of grid points (after weights+screening)   ...   6168 (   0.0 sec)
nearest neighbour list constructed           ...    0.0 sec
Grid point re-assignment to atoms done       ...    0.0 sec
Grid point division into batches done        ...    0.0 sec
Reduced shell lists constructed in    0.2 sec

Total number of grid points                  ...     6168
Total number of batches                      ...      102
Average number of points per batch           ...       60
Average number of grid points per atom       ...      514
Average number of shells per batch           ...    71.24 (70.54%)
Average number of basis functions per batch  ...   193.38 (74.66%)
Average number of large shells per batch     ...    57.70 (80.99%)
Average number of large basis fcns per batch ...   155.04 (80.17%)
Maximum spatial batch extension              ...  33.80, 28.17, 36.53 au
Average spatial batch extension              ...   6.16,  5.79,  6.64 au

Overlap Fitting                  UseSFitting ... on
Constructing numerical overlap ... done (      0.1 sec)
Inverting numerical overlap    ... done (      0.0 sec)
Obtaining analytic overlap     ... done (      0.0 sec)
Final contraction and storage  ... done (      0.0 sec)


General Integration Accuracy     IntAcc      ...  3.670
Radial Grid Type                 RadialGrid  ... Gauss-Chebyshev
Angular Grid (max. acc.)         AngularGrid ... Lebedev-50
Angular grid pruning method      GridPruning ... 3 (G Style)
Weight generation scheme         WeightScheme... Becke
Basis function cutoff            BFCut       ...    1.0000e-11
Integration weight cutoff        WCut        ...    1.0000e-14
Grids for H and He will be reduced by one unit

# of grid points (after initial pruning)     ...   8124 (   0.0 sec)
# of grid points (after weights+screening)   ...   7594 (   0.0 sec)
nearest neighbour list constructed           ...    0.0 sec
Grid point re-assignment to atoms done       ...    0.0 sec
Grid point division into batches done        ...    0.0 sec
Reduced shell lists constructed in    0.2 sec

Total number of grid points                  ...     7594
Total number of batches                      ...      124
Average number of points per batch           ...       61
Average number of grid points per atom       ...      633
Average number of shells per batch           ...    70.46 (69.77%)
Average number of basis functions per batch  ...   191.31 (73.87%)
Average number of large shells per batch     ...    56.80 (80.61%)
Average number of large basis fcns per batch ...   151.92 (79.41%)
Maximum spatial batch extension              ...  31.62, 29.13, 37.97 au
Average spatial batch extension              ...   5.58,  5.24,  6.01 au

Overlap Fitting                  UseSFitting ... on
Constructing numerical overlap ... done (      0.1 sec)
Inverting numerical overlap    ... done (      0.0 sec)
Obtaining analytic overlap     ... done (      0.0 sec)
Final contraction and storage  ... done (      0.0 sec)


General Integration Accuracy     IntAcc      ...  4.010
Radial Grid Type                 RadialGrid  ... Gauss-Chebyshev
Angular Grid (max. acc.)         AngularGrid ... Lebedev-110
Angular grid pruning method      GridPruning ... 3 (G Style)
Weight generation scheme         WeightScheme... Becke
Basis function cutoff            BFCut       ...    1.0000e-11
Integration weight cutoff        WCut        ...    1.0000e-14
Grids for H and He will be reduced by one unit

# of grid points (after initial pruning)     ...  15170 (   0.0 sec)
# of grid points (after weights+screening)   ...  14263 (   0.0 sec)
nearest neighbour list constructed           ...    0.0 sec
Grid point re-assignment to atoms done       ...    0.0 sec
Grid point division into batches done        ...    0.0 sec
Reduced shell lists constructed in    0.4 sec

Total number of grid points                  ...    14263
Total number of batches                      ...      230
Average number of points per batch           ...       62
Average number of grid points per atom       ...     1189
Average number of shells per batch           ...    66.83 (66.17%)
Average number of basis functions per batch  ...   180.95 (69.87%)
Average number of large shells per batch     ...    53.14 (79.51%)
Average number of large basis fcns per batch ...   141.88 (78.41%)
Maximum spatial batch extension              ...  35.04, 34.29, 39.26 au
Average spatial batch extension              ...   4.77,  4.82,  4.97 au

Overlap Fitting                  UseSFitting ... on
Constructing numerical overlap ... done (      0.2 sec)
Inverting numerical overlap    ... done (      0.0 sec)
Obtaining analytic overlap     ... done (      0.0 sec)
Final contraction and storage  ... done (      0.0 sec)

Time for X-Grid setup             =    1.415 sec
--------------
SCF ITERATIONS
--------------
ITER       Energy         Delta-E        Max-DP      RMS-DP      [F,P]     Damp
               ***  Starting incremental Fock matrix formation  ***
  0  -1668.1439974003   0.000000000000 0.04501291  0.00081393  0.5904158 0.8500
  1  -1668.2038210154  -0.059823615087 0.04519827  0.00093585  0.5025327 0.8500
                               ***Turning on DIIS***
  2  -1668.2565303862  -0.052709370760 0.03659200  0.00086062  0.4275070 0.8500
  3  -1668.2999483501  -0.043417963870 0.02580466  0.00068959  0.3636366 0.8500
  4  -1668.3366842241  -0.036735874021 0.02451856  0.00058057  0.3092120 0.8500
  5  -1668.3678318201  -0.031147595988 0.02270876  0.00052419  0.2628747 0.8500
  6  -1668.3949310109  -0.027099190793 0.01928360  0.00047921  0.2234649 0.8500
  7  -1668.4187299910  -0.023798980196 0.01699040  0.00044146  0.1899597 0.8500
  8  -1668.4396310706  -0.020901079576 0.01567193  0.00039353  0.1614792 0.8500
  9  -1668.4577745315  -0.018143460856 0.01368646  0.00034174  0.1372678 0.8500
 10  -1668.4734576726  -0.015683141095 0.01182119  0.00029611  0.1166854 0.8500
 11  -1668.4870097730  -0.013552100451 0.01032359  0.00025877  0.0991885 0.8500
 12  -1668.4987207688  -0.011710995727 0.00909013  0.00022775  0.0843149 0.8500
 13  -1668.5088305965  -0.010109827754 0.00793751  0.00020037  0.0716711 0.8500
 14  -1668.5175416072  -0.008711010708 0.00682095  0.00017579  0.0609231 0.8500
 15  -1668.5250350019  -0.007493394688 0.00579343  0.00015441  0.0517868 0.8500
 16  -1668.5314743423  -0.006439340406 0.00489593  0.00013646  0.0440206 0.8500
 17  -1668.5370044364  -0.005530094106 0.00437742  0.00012160  0.0374190 0.8500
 18  -1668.5417514140  -0.004746977547 0.00426036  0.00010930  0.0318074 0.8500
 19  -1668.5458245079  -0.004073093897 0.02762221  0.00066066  0.0270372 0.0000
               *** Restarting incremental Fock matrix formation ***
                                   *** Resetting DIIS ***
 20  -1668.5725437308  -0.026719222940 0.00472508  0.00009704  0.0023922 0.0000
 21  -1668.5726750816  -0.000131350756 0.00512486  0.00010065  0.0023719 0.0000
 22  -1668.5728092059  -0.000134124340 0.00499793  0.00010430  0.0022497 0.0000
 23  -1668.5729445483  -0.000135342435 0.00652223  0.00013882  0.0021870 0.0000
 24  -1668.5731175862  -0.000173037819 0.00485905  0.00010792  0.0021262 0.0000
 25  -1668.5732493964  -0.000131810264 0.00691496  0.00016228  0.0019801 0.0000
 26  -1668.5734333297  -0.000183933308 0.00366773  0.00009171  0.0019575 0.0000
 27  -1668.5735379704  -0.000104640644 0.00795160  0.00020464  0.0017367 0.0000
 28  -1668.5737386305  -0.000200660115 0.00406275  0.00011051  0.0018491 0.0000
 29  -1668.5738594746  -0.000120844100 0.00969495  0.00027933  0.0015533 0.0000
 30  -1668.5740518311  -0.000192356470 0.00357703  0.00007618  0.0020480 0.0000
 31  -1668.5741498201  -0.000097989092 0.00910127  0.00025880  0.0011850 0.0000
 32  -1668.5742795120  -0.000129691883 0.00366685  0.00011506  0.0020803 0.0000
 33  -1668.5743882566  -0.000108744623 0.00450142  0.00013707  0.0013652 0.0000
 34  -1668.5744586527  -0.000070396075 0.00342669  0.00010273  0.0014346 0.0000
 35  -1668.5745121443  -0.000053491589 0.00287950  0.00008261  0.0012487 0.0000
 36  -1668.5745508705  -0.000038726228 0.00367614  0.00010674  0.0010390 0.0000
 37  -1668.5745759288  -0.000025058230 0.00215342  0.00006280  0.0012810 0.0000
 38  -1668.5746058101  -0.000029881371 0.00230684  0.00005366  0.0006876 0.0000
               *** Restarting incremental Fock matrix formation ***
                                   *** Resetting DIIS ***
                      *** Initiating the SOSCF procedure ***
                           *** Shutting down DIIS ***
                      *** Re-Reading the Fockian *** 
                      *** Removing any level shift *** 
ITER      Energy       Delta-E        Grad      Rot      Max-DP    RMS-DP
 39  -1668.57188691   0.0027188958  0.000914  0.000914  0.001449  0.000039
               *** Restarting incremental Fock matrix formation ***
 40  -1668.57189279  -0.0000058714  0.000281  0.002990  0.002896  0.000058
 41  -1668.57189952  -0.0000067378  0.000613  0.010574  0.005093  0.000124
 42  -1668.57190989  -0.0000103661  0.000140  0.006239  0.002833  0.000079
 43  -1668.57191338  -0.0000034920  0.000078  0.001186  0.000936  0.000018
 44  -1668.57191403  -0.0000006448  0.000050  0.000382  0.000431  0.000009
 45  -1668.57191444  -0.0000004097  0.000012  0.000134  0.000105  0.000003
 46  -1668.57191443   0.0000000080  0.000010  0.000078  0.000044  0.000001
 47  -1668.57191441   0.0000000214  0.000006  0.000088  0.000051  0.000001
                  ***Gradient check signals convergence***
              ***Rediagonalizing the Fockian in SOSCF/NRSCF***

               *****************************************************
               *                     SUCCESS                       *
               *           SCF CONVERGED AFTER  48 CYCLES          *
               *****************************************************

Old exchange energy                            =    -59.321048573 Eh
New exchange energy                            =    -59.324038706 Eh
Exchange energy change after final integration =     -0.002990133 Eh
Total energy after final integration           =  -1668.574904523 Eh
Final COS-X integration done in                =    23.134 sec

----------------
TOTAL SCF ENERGY
----------------

Total Energy       :        -1668.57490452 Eh          -45404.23146 eV

Components:
Nuclear Repulsion  :          704.87647905 Eh           19180.66412 eV
Electronic Energy  :        -2373.45138358 Eh          -64584.89558 eV

One Electron Energy:        -3780.30238670 Eh         -102867.25761 eV
Two Electron Energy:         1406.85100312 Eh           38282.36203 eV

Virial components:
Potential Energy   :        -3208.20347810 Eh          -87299.65487 eV
Kinetic Energy     :         1539.62857358 Eh           41895.42341 eV
Virial Ratio       :            2.08375158


DFT components:
N(Alpha)           :       46.000001447684 electrons
N(Beta)            :       46.000001447684 electrons
N(Total)           :       92.000002895368 electrons
E(X)               :      -52.701346134538 Eh       
E(C)               :       -2.639339900409 Eh       
E(XC)              :      -55.340686034947 Eh       

---------------
SCF CONVERGENCE
---------------

  Last Energy change         ...    1.6682e-08  Tolerance :   1.0000e-08
  Last MAX-Density change    ...    6.4393e-14  Tolerance :   1.0000e-07
  Last RMS-Density change    ...    1.0870e-15  Tolerance :   5.0000e-09
  Last Orbital Gradient      ...    2.1784e-06  Tolerance :   1.0000e-05
  Last Orbital Rotation      ...    4.9258e-05  Tolerance :   1.0000e-05

             **** THE GBW FILE WAS UPDATED (PbMACl3_mp2_md2_13.orca.gbw) ****
             **** DENSITY FILE WAS UPDATED (PbMACl3_mp2_md2_13.orca.scfp.tmp) ****
             **** ENERGY FILE WAS UPDATED (PbMACl3_mp2_md2_13.orca.en.tmp) ****
----------------
ORBITAL ENERGIES
----------------

  NO   OCC          E(Eh)            E(eV) 
   0   2.0000    -102.854684     -2798.8183 
   1   2.0000    -102.835013     -2798.2830 
   2   2.0000    -102.828984     -2798.1189 
   3   2.0000     -14.912273      -405.7836 
   4   2.0000     -10.683008      -290.6994 
   5   2.0000      -9.869306      -268.5575 
   6   2.0000      -9.849726      -268.0247 
   7   2.0000      -9.843150      -267.8457 
   8   2.0000      -7.506679      -204.2671 
   9   2.0000      -7.503421      -204.1785 
  10   2.0000      -7.502143      -204.1437 
  11   2.0000      -7.487225      -203.7378 
  12   2.0000      -7.483574      -203.6384 
  13   2.0000      -7.482861      -203.6190 
  14   2.0000      -7.479529      -203.5283 
  15   2.0000      -7.477694      -203.4784 
  16   2.0000      -7.477606      -203.4760 
  17   2.0000      -5.797083      -157.7467 
  18   2.0000      -3.569361       -97.1272 
  19   2.0000      -3.567193       -97.0683 
  20   2.0000      -3.566271       -97.0432 
  21   2.0000      -1.131788       -30.7975 
  22   2.0000      -1.033564       -28.1247 
  23   2.0000      -0.972083       -26.4517 
  24   2.0000      -0.961846       -26.1731 
  25   2.0000      -0.957864       -26.0648 
  26   2.0000      -0.955992       -26.0139 
  27   2.0000      -0.947121       -25.7725 
  28   2.0000      -0.892785       -24.2939 
  29   2.0000      -0.841331       -22.8938 
  30   2.0000      -0.797152       -21.6916 
  31   2.0000      -0.656075       -17.8527 
  32   2.0000      -0.650267       -17.6947 
  33   2.0000      -0.587992       -16.0001 
  34   2.0000      -0.572985       -15.5917 
  35   2.0000      -0.507325       -13.8050 
  36   2.0000      -0.506914       -13.7938 
  37   2.0000      -0.472262       -12.8509 
  38   2.0000      -0.421737       -11.4760 
  39   2.0000      -0.405550       -11.0356 
  40   2.0000      -0.367341        -9.9959 
  41   2.0000      -0.349031        -9.4976 
  42   2.0000      -0.322156        -8.7663 
  43   2.0000      -0.310124        -8.4389 
  44   2.0000      -0.250916        -6.8278 
  45   2.0000      -0.138969        -3.7815 
  46   0.0000      -0.043490        -1.1834 
  47   0.0000      -0.005116        -0.1392 
  48   0.0000       0.015892         0.4325 
  49   0.0000       0.054339         1.4786 
  50   0.0000       0.099267         2.7012 
  51   0.0000       0.119644         3.2557 
  52   0.0000       0.123585         3.3629 
  53   0.0000       0.133302         3.6273 
  54   0.0000       0.138384         3.7656 
  55   0.0000       0.144461         3.9310 
  56   0.0000       0.146423         3.9844 
  57   0.0000       0.157528         4.2866 
  58   0.0000       0.168249         4.5783 
  59   0.0000       0.216637         5.8950 
  60   0.0000       0.230220         6.2646 
  61   0.0000       0.238600         6.4926 
  62   0.0000       0.254462         6.9243 
  63   0.0000       0.261848         7.1253 
  64   0.0000       0.278543         7.5795 
  65   0.0000       0.290462         7.9039 
  66   0.0000       0.297511         8.0957 
  67   0.0000       0.325680         8.8622 
  68   0.0000       0.346270         9.4225 
  69   0.0000       0.362436         9.8624 
  70   0.0000       0.380484        10.3535 
  71   0.0000       0.387153        10.5350 
  72   0.0000       0.406870        11.0715 
  73   0.0000       0.417192        11.3524 
  74   0.0000       0.424695        11.5565 
  75   0.0000       0.433443        11.7946 
  76   0.0000       0.440789        11.9945 
  77   0.0000       0.459531        12.5045 
  78   0.0000       0.472803        12.8656 
  79   0.0000       0.479954        13.0602 
  80   0.0000       0.499477        13.5915 
  81   0.0000       0.504103        13.7173 
  82   0.0000       0.517670        14.0865 
  83   0.0000       0.527625        14.3574 
  84   0.0000       0.538390        14.6503 
  85   0.0000       0.542216        14.7545 
  86   0.0000       0.546901        14.8819 
  87   0.0000       0.567334        15.4379 
  88   0.0000       0.588115        16.0034 
  89   0.0000       0.604007        16.4359 
  90   0.0000       0.608547        16.5594 
  91   0.0000       0.619632        16.8610 
  92   0.0000       0.632462        17.2102 
  93   0.0000       0.653464        17.7816 
  94   0.0000       0.676411        18.4061 
  95   0.0000       0.685712        18.6592 
  96   0.0000       0.700740        19.0681 
  97   0.0000       0.711561        19.3626 
  98   0.0000       0.724848        19.7241 
  99   0.0000       0.749683        20.3999 
 100   0.0000       0.772020        21.0077 
 101   0.0000       0.799406        21.7530 
 102   0.0000       0.814993        22.1771 
 103   0.0000       0.830210        22.5912 
 104   0.0000       0.841647        22.9024 
 105   0.0000       0.865411        23.5490 
 106   0.0000       0.875308        23.8183 
 107   0.0000       0.884706        24.0741 
 108   0.0000       0.910715        24.7818 
 109   0.0000       0.923677        25.1345 
 110   0.0000       0.941080        25.6081 
 111   0.0000       0.965615        26.2757 
 112   0.0000       0.991121        26.9698 
 113   0.0000       1.028341        27.9826 
 114   0.0000       1.032438        28.0941 
 115   0.0000       1.044881        28.4326 
 116   0.0000       1.049223        28.5508 
 117   0.0000       1.076086        29.2818 
 118   0.0000       1.087448        29.5910 
 119   0.0000       1.110904        30.2292 
 120   0.0000       1.128014        30.6948 
 121   0.0000       1.168370        31.7930 
 122   0.0000       1.200114        32.6568 
 123   0.0000       1.268165        34.5085 
 124   0.0000       1.306908        35.5628 
 125   0.0000       1.356455        36.9110 
 126   0.0000       1.376518        37.4570 
 127   0.0000       1.386403        37.7259 
 128   0.0000       1.430497        38.9258 
 129   0.0000       1.446828        39.3702 
 130   0.0000       1.530490        41.6467 
 131   0.0000       1.586825        43.1797 
 132   0.0000       1.595750        43.4226 
 133   0.0000       1.622143        44.1408 
 134   0.0000       1.644350        44.7450 
 135   0.0000       1.650132        44.9024 
 136   0.0000       1.740972        47.3743 
 137   0.0000       1.763053        47.9751 
 138   0.0000       1.792201        48.7683 
 139   0.0000       1.865555        50.7643 
 140   0.0000       1.875384        51.0318 
 141   0.0000       1.922982        52.3270 
 142   0.0000       1.929953        52.5167 
 143   0.0000       1.960889        53.3585 
 144   0.0000       1.965799        53.4921 
 145   0.0000       1.971973        53.6601 
 146   0.0000       1.990468        54.1634 
 147   0.0000       2.001776        54.4711 
 148   0.0000       2.015486        54.8442 
 149   0.0000       2.023524        55.0629 
 150   0.0000       2.027049        55.1588 
 151   0.0000       2.032143        55.2974 
 152   0.0000       2.046746        55.6948 
 153   0.0000       2.055594        55.9356 
 154   0.0000       2.073354        56.4188 
 155   0.0000       2.082010        56.6544 
 156   0.0000       2.100597        57.1602 
 157   0.0000       2.112321        57.4792 
 158   0.0000       2.128929        57.9311 
 159   0.0000       2.136282        58.1312 
 160   0.0000       2.142164        58.2912 
 161   0.0000       2.156288        58.6756 
 162   0.0000       2.166992        58.9669 
 163   0.0000       2.177813        59.2613 
 164   0.0000       2.187332        59.5203 
 165   0.0000       2.221782        60.4578 
 166   0.0000       2.236758        60.8653 
 167   0.0000       2.264858        61.6299 
 168   0.0000       2.270488        61.7831 
 169   0.0000       2.280139        62.0457 
 170   0.0000       2.286713        62.2246 
 171   0.0000       2.313702        62.9590 
 172   0.0000       2.323988        63.2389 
 173   0.0000       2.353135        64.0321 
 174   0.0000       2.359131        64.1952 
 175   0.0000       2.379985        64.7627 
 176   0.0000       2.389688        65.0267 
 177   0.0000       2.393764        65.1376 
 178   0.0000       2.394387        65.1546 
 179   0.0000       2.414382        65.6987 
 180   0.0000       2.425437        65.9995 
 181   0.0000       2.435444        66.2718 
 182   0.0000       2.443437        66.4893 
 183   0.0000       2.459795        66.9344 
 184   0.0000       2.466578        67.1190 
 185   0.0000       2.472640        67.2839 
 186   0.0000       2.484519        67.6072 
 187   0.0000       2.493932        67.8633 
 188   0.0000       2.536906        69.0327 
 189   0.0000       2.563156        69.7470 
 190   0.0000       2.608768        70.9882 
 191   0.0000       2.625365        71.4398 
 192   0.0000       2.642702        71.9116 
 193   0.0000       2.660499        72.3959 
 194   0.0000       2.687921        73.1421 
 195   0.0000       2.696352        73.3715 
 196   0.0000       2.711521        73.7842 
 197   0.0000       2.789242        75.8991 
 198   0.0000       2.795860        76.0792 
 199   0.0000       2.828986        76.9806 
 200   0.0000       2.836713        77.1909 
 201   0.0000       2.856433        77.7275 
 202   0.0000       2.879333        78.3506 
 203   0.0000       2.916385        79.3589 
 204   0.0000       2.950566        80.2890 
 205   0.0000       3.009185        81.8841 
 206   0.0000       3.025557        82.3296 
 207   0.0000       3.074915        83.6727 
 208   0.0000       3.100923        84.3804 
 209   0.0000       3.136652        85.3526 
 210   0.0000       3.225766        87.7775 
 211   0.0000       3.270753        89.0017 
 212   0.0000       3.280940        89.2789 
 213   0.0000       3.316818        90.2552 
 214   0.0000       3.340997        90.9131 
 215   0.0000       3.371344        91.7389 
 216   0.0000       3.423381        93.1549 
 217   0.0000       3.442257        93.6686 
 218   0.0000       3.586890        97.6042 
 219   0.0000       3.624138        98.6178 
 220   0.0000       3.639398        99.0331 
 221   0.0000       3.831549       104.2617 
 222   0.0000       3.868220       105.2596 
 223   0.0000       3.989281       108.5539 
 224   0.0000       4.062112       110.5357 
 225   0.0000       4.221535       114.8738 
 226   0.0000       4.251561       115.6909 
 227   0.0000       4.477644       121.8429 
 228   0.0000       4.590953       124.9262 
 229   0.0000       4.947650       134.6324 
 230   0.0000       4.983777       135.6155 
 231   0.0000       4.999180       136.0346 
 232   0.0000       5.019448       136.5861 
 233   0.0000       5.144759       139.9960 
 234   0.0000       5.237509       142.5199 
 235   0.0000       5.259140       143.1085 
 236   0.0000       5.383743       146.4991 
 237   0.0000       5.679210       154.5392 
 238   0.0000       5.697617       155.0400 
 239   0.0000       5.957456       162.1106 
 240   0.0000      11.080064       301.5039 
 241   0.0000      11.153650       303.5062 
 242   0.0000      11.195851       304.6546 
 243   0.0000      11.208796       305.0068 
 244   0.0000      11.215194       305.1809 
 245   0.0000      11.261075       306.4294 
 246   0.0000      11.342915       308.6564 
 247   0.0000      11.351915       308.9013 
 248   0.0000      11.675678       317.7114 
 249   0.0000      22.694060       617.5368 
 250   0.0000      25.705515       699.4826 
 251   0.0000      25.884028       704.3402 
 252   0.0000      26.001849       707.5463 
 253   0.0000      32.498223       884.3216 
 254   0.0000      35.543868       967.1978 
 255   0.0000      35.750405       972.8180 
 256   0.0000      35.779464       973.6087 
 257   0.0000      36.093550       982.1554 
 258   0.0000     123.639694      3364.4071 

                    ********************************
                    * MULLIKEN POPULATION ANALYSIS *
                    ********************************

-----------------------
MULLIKEN ATOMIC CHARGES
-----------------------
   0 C :   -0.255009
   1 N :   -0.217446
   2 H :    0.145395
   3 H :    0.147532
   4 H :    0.135807
   5 H :    0.293696
   6 H :    0.245201
   7 H :    0.262202
   8 Pb:    0.601259
   9 Cl:   -0.419271
  10 Cl:   -0.554254
  11 Cl:   -0.385112
Sum of atomic charges:    0.0000000

--------------------------------
MULLIKEN REDUCED ORBITAL CHARGES
--------------------------------
  0 C s       :     3.267175  s :     3.267175
      pz      :     0.976287  p :     2.908833
      px      :     0.990430
      py      :     0.942116
      dz2     :     0.006626  d :     0.072929
      dxz     :     0.020015
      dyz     :     0.019144
      dx2y2   :     0.008422
      dxy     :     0.018722
      f0      :     0.000314  f :     0.006072
      f+1     :     0.000487
      f-1     :     0.000707
      f+2     :     0.000795
      f-2     :     0.002603
      f+3     :     0.000507
      f-3     :     0.000659
  1 N s       :     3.417931  s :     3.417931
      pz      :     1.257485  p :     3.734443
      px      :     1.235054
      py      :     1.241903
      dz2     :     0.008128  d :     0.062675
      dxz     :     0.013596
      dyz     :     0.012297
      dx2y2   :     0.014825
      dxy     :     0.013830
      f0      :     0.000088  f :     0.002397
      f+1     :     0.000222
      f-1     :     0.000233
      f+2     :     0.000208
      f-2     :     0.001151
      f+3     :     0.000239
      f-3     :     0.000257
  2 H s       :     0.832823  s :     0.832823
      pz      :     0.008229  p :     0.021781
      px      :     0.007693
      py      :     0.005859
  3 H s       :     0.830718  s :     0.830718
      pz      :     0.006867  p :     0.021750
      px      :     0.007549
      py      :     0.007334
  4 H s       :     0.842650  s :     0.842650
      pz      :     0.006663  p :     0.021543
      px      :     0.007358
      py      :     0.007521
  5 H s       :     0.651059  s :     0.651059
      pz      :     0.011156  p :     0.055245
      px      :     0.024547
      py      :     0.019542
  6 H s       :     0.705125  s :     0.705125
      pz      :     0.011451  p :     0.049673
      px      :     0.012841
      py      :     0.025381
  7 H s       :     0.690658  s :     0.690658
      pz      :     0.014184  p :     0.047139
      px      :     0.024163
      py      :     0.008793
  8 Pbs       :     3.916240  s :     3.916240
      pz      :     2.396727  p :     7.322443
      px      :     2.393815
      py      :     2.531901
      dz2     :     2.019851  d :    10.095303
      dxz     :     2.014088
      dyz     :     2.023903
      dx2y2   :     2.018700
      dxy     :     2.018761
      f0      :     0.017979  f :     0.064756
      f+1     :     0.006947
      f-1     :     0.010463
      f+2     :     0.013491
      f-2     :     0.007629
      f+3     :     0.004141
      f-3     :     0.004106
  9 Cls       :     5.922902  s :     5.922902
      pz      :     3.789539  p :    11.334072
      px      :     3.616811
      py      :     3.927721
      dz2     :     0.018091  d :     0.154147
      dxz     :     0.056800
      dyz     :     0.011139
      dx2y2   :     0.039476
      dxy     :     0.028641
      f0      :     0.000667  f :     0.008150
      f+1     :     0.001344
      f-1     :     0.000227
      f+2     :     0.001805
      f-2     :     0.000805
      f+3     :     0.001605
      f-3     :     0.001697
 10 Cls       :     5.950477  s :     5.950477
      pz      :     3.785561  p :    11.538660
      px      :     3.917542
      py      :     3.835558
      dz2     :     0.007021  d :     0.061617
      dxz     :     0.012382
      dyz     :     0.015313
      dx2y2   :     0.016002
      dxy     :     0.010899
      f0      :     0.000346  f :     0.003500
      f+1     :     0.000341
      f-1     :     0.000301
      f+2     :     0.000667
      f-2     :     0.000414
      f+3     :     0.000868
      f-3     :     0.000563
 11 Cls       :     5.924201  s :     5.924201
      pz      :     3.609159  p :    11.312183
      px      :     3.797126
      py      :     3.905899
      dz2     :     0.031025  d :     0.140529
      dxz     :     0.035720
      dyz     :     0.011019
      dx2y2   :     0.040576
      dxy     :     0.022189
      f0      :     0.001370  f :     0.008199
      f+1     :     0.001281
      f-1     :     0.000394
      f+2     :     0.001647
      f-2     :     0.000790
      f+3     :     0.001479
      f-3     :     0.001238


                     *******************************
                     * LOEWDIN POPULATION ANALYSIS *
                     *******************************

----------------------
LOEWDIN ATOMIC CHARGES
----------------------
   0 C :   -0.298351
   1 N :   -0.029513
   2 H :    0.120389
   3 H :    0.120681
   4 H :    0.116587
   5 H :    0.126297
   6 H :    0.120976
   7 H :    0.140985
   8 Pb:   -0.057996
   9 Cl:   -0.093580
  10 Cl:   -0.143016
  11 Cl:   -0.123458

-------------------------------
LOEWDIN REDUCED ORBITAL CHARGES
-------------------------------
  0 C s       :     2.854056  s :     2.854056
      pz      :     1.038277  p :     3.095762
      px      :     1.044491
      py      :     1.012993
      dz2     :     0.028792  d :     0.311500
      dxz     :     0.082417
      dyz     :     0.083358
      dx2y2   :     0.032677
      dxy     :     0.084256
      f0      :     0.005242  f :     0.037034
      f+1     :     0.003838
      f-1     :     0.005590
      f+2     :     0.004508
      f-2     :     0.007022
      f+3     :     0.004942
      f-3     :     0.005893
  1 N s       :     3.026240  s :     3.026240
      pz      :     1.228506  p :     3.777119
      px      :     1.279931
      py      :     1.268682
      dz2     :     0.026604  d :     0.214693
      dxz     :     0.049829
      dyz     :     0.045301
      dx2y2   :     0.044485
      dxy     :     0.048474
      f0      :     0.001513  f :     0.011461
      f+1     :     0.001383
      f-1     :     0.001554
      f+2     :     0.001095
      f-2     :     0.001867
      f+3     :     0.001967
      f-3     :     0.002082
  2 H s       :     0.817274  s :     0.817274
      pz      :     0.022719  p :     0.062337
      px      :     0.021564
      py      :     0.018054
  3 H s       :     0.816984  s :     0.816984
      pz      :     0.019353  p :     0.062336
      px      :     0.022627
      py      :     0.020355
  4 H s       :     0.821858  s :     0.821858
      pz      :     0.020489  p :     0.061555
      px      :     0.020519
      py      :     0.020546
  5 H s       :     0.712983  s :     0.712983
      pz      :     0.033589  p :     0.160719
      px      :     0.074218
      py      :     0.052913
  6 H s       :     0.723934  s :     0.723934
      pz      :     0.033582  p :     0.155090
      px      :     0.041447
      py      :     0.080062
  7 H s       :     0.713691  s :     0.713691
      pz      :     0.040204  p :     0.145324
      px      :     0.076621
      py      :     0.028499
  8 Pbs       :     3.718927  s :     3.718927
      pz      :     2.604258  p :     7.670162
      px      :     2.484229
      py      :     2.581675
      dz2     :     2.127321  d :    10.476683
      dxz     :     2.100784
      dyz     :     2.110370
      dx2y2   :     2.072138
      dxy     :     2.066070
      f0      :     0.055395  f :     0.192224
      f+1     :     0.021046
      f-1     :     0.027529
      f+2     :     0.040221
      f-2     :     0.022984
      f+3     :     0.014157
      f-3     :     0.010893
  9 Cls       :     5.625433  s :     5.625433
      pz      :     3.694612  p :    11.044581
      px      :     3.557326
      py      :     3.792643
      dz2     :     0.038733  d :     0.393374
      dxz     :     0.158387
      dyz     :     0.019782
      dx2y2   :     0.125019
      dxy     :     0.051453
      f0      :     0.003270  f :     0.030192
      f+1     :     0.003803
      f-1     :     0.000588
      f+2     :     0.008998
      f-2     :     0.002323
      f+3     :     0.006934
      f-3     :     0.004276
 10 Cls       :     5.698513  s :     5.698513
      pz      :     3.734055  p :    11.290354
      px      :     3.779620
      py      :     3.776680
      dz2     :     0.016994  d :     0.144404
      dxz     :     0.023721
      dyz     :     0.033620
      dx2y2   :     0.048630
      dxy     :     0.021438
      f0      :     0.001059  f :     0.009746
      f+1     :     0.000941
      f-1     :     0.000716
      f+2     :     0.001827
      f-2     :     0.001227
      f+3     :     0.002424
      f-3     :     0.001552
 11 Cls       :     5.638589  s :     5.638589
      pz      :     3.570753  p :    11.078358
      px      :     3.681360
      py      :     3.826246
      dz2     :     0.067624  d :     0.375771
      dxz     :     0.106119
      dyz     :     0.025136
      dx2y2   :     0.134075
      dxy     :     0.042817
      f0      :     0.005512  f :     0.030740
      f+1     :     0.003576
      f-1     :     0.000893
      f+2     :     0.007482
      f-2     :     0.002066
      f+3     :     0.007528
      f-3     :     0.003683


                      *****************************
                      * MAYER POPULATION ANALYSIS *
                      *****************************

  NA   - Mulliken gross atomic population
  ZA   - Total nuclear charge
  QA   - Mulliken gross atomic charge
  VA   - Mayer's total valence
  BVA  - Mayer's bonded valence
  FA   - Mayer's free valence

  ATOM       NA         ZA         QA         VA         BVA        FA
  0 C      6.2550     6.0000    -0.2550     3.8681     3.8681     0.0000
  1 N      7.2174     7.0000    -0.2174     3.2360     3.2360     0.0000
  2 H      0.8546     1.0000     0.1454     0.9728     0.9728     0.0000
  3 H      0.8525     1.0000     0.1475     0.9704     0.9704    -0.0000
  4 H      0.8642     1.0000     0.1358     0.9637     0.9637     0.0000
  5 H      0.7063     1.0000     0.2937     0.9420     0.9420     0.0000
  6 H      0.7548     1.0000     0.2452     0.9929     0.9929    -0.0000
  7 H      0.7378     1.0000     0.2622     0.9833     0.9833     0.0000
  8 Pb    21.3987    22.0000     0.6013     2.1274     2.1274    -0.0000
  9 Cl    17.4193    17.0000    -0.4193     1.0855     1.0855    -0.0000
 10 Cl    17.5543    17.0000    -0.5543     0.7357     0.7357     0.0000
 11 Cl    17.3851    17.0000    -0.3851     1.0714     1.0714     0.0000

  Mayer bond orders larger than 0.1
B(  0-C ,  1-N ) :   0.9250 B(  0-C ,  2-H ) :   0.9705 B(  0-C ,  3-H ) :   0.9688 
B(  0-C ,  4-H ) :   0.9718 B(  1-N ,  5-H ) :   0.8109 B(  1-N ,  6-H ) :   0.7917 
B(  1-N ,  7-H ) :   0.8177 B(  5-H , 11-Cl) :   0.1344 B(  6-H ,  9-Cl) :   0.1645 
B(  7-H , 10-Cl) :   0.1321 B(  8-Pb,  9-Cl) :   0.7435 B(  8-Pb, 10-Cl) :   0.5941 
B(  8-Pb, 11-Cl) :   0.7488 B(  9-Cl, 11-Cl) :   0.1810 

-------
TIMINGS
-------

Total SCF time: 0 days 0 hours 11 min 24 sec 

Total time                  ....     684.959 sec
Sum of individual times     ....     660.670 sec  ( 96.5%)

Fock matrix formation       ....     653.757 sec  ( 95.4%)
  Coulomb formation         ....     505.461 sec  ( 77.3% of F)
  Split-RI-J                ....      43.894 sec  (  6.7% of F)
  Chain of spheres X        ....     484.579 sec  ( 74.1% of F)
  COS-X 1 center corr.      ....       0.000 sec  (  0.0% of F)
  XC integration            ....     148.324 sec  ( 22.7% of F)
    Basis function eval.    ....      66.978 sec  ( 45.2% of XC)
    Density eval.           ....      31.599 sec  ( 21.3% of XC)
    XC-Functional eval.     ....       6.670 sec  (  4.5% of XC)
    XC-Potential eval.      ....      40.809 sec  ( 27.5% of XC)
Diagonalization             ....       1.161 sec  (  0.2%)
Density matrix formation    ....       0.079 sec  (  0.0%)
Population analysis         ....       0.071 sec  (  0.0%)
Initial guess               ....       0.113 sec  (  0.0%)
Orbital Transformation      ....       0.000 sec  (  0.0%)
Orbital Orthonormalization  ....       0.110 sec  (  0.0%)
DIIS solution               ....       0.297 sec  (  0.0%)
SOSCF solution              ....       0.133 sec  (  0.0%)
Grid generation             ....       5.059 sec  (  0.7%)

------------------------------------------------------------------------------
                              ORCA MP2 CALCULATION
------------------------------------------------------------------------------


----------------------
RI-MP2 ENERGY+GRADIENT
----------------------
Dimension of the basis                    ...  259
Memory devoted to MP2                     ... 1000 MB   
Data format for buffers                   ... DOUBLE
Compression type for matrix containers    ... UNCOMPRESSED
Overall scaling of the MP2 energy         ...   2.700e-01 Eh
Calculating two index integrals           ... done (    0.012 sec)
Cholesky decomposition of the V-matrix    ... done
Cholesky decomposition of V**-1           ... done (    0.027 sec)

-----------------
RI-TRANSFORMATION (AUX index driven)
-----------------

Dimension of the orbital-basis         ... 259
Dimension of the aux-basis             ... 493
Transformation of internal MOs         ...    0-  45
Transformation of internal/external MOs...    0-  45 to   46- 258
Number Format for Storage              ... Double (8 Byte)
Integral mode                          ... Direct

First Phase: integral generation and transformation of MO indices
  Aux angular momentum 0               ... done (    0.557 sec)
  Aux angular momentum 1               ... done (    0.425 sec)
  Aux angular momentum 2               ... done (    0.487 sec)
  Aux angular momentum 3               ... done (    0.276 sec)
  Aux angular momentum 4               ... done (    0.236 sec)
Closing buffer VIJ ( 0.00 GB; CompressionRatio= 1.95)
Closing buffer VIA ( 0.04 GB; CompressionRatio= 1.00)
  Phase 1 completed in     2.083 sec
Second Phase: sorting and transformation of aux index

IJ-Transformation
Memory available                       ... 990 MB 
Max. # MO pairs treated in a batch     ... 46    
# of internal orbitals                 ... 46
# batches for internal orbitals        ... 1
Closing buffer IJV ( 0.00 GB; CompressionRatio= 1.00)
(ij|v) transformation done in     0.090 sec

IA-Transformation
Memory available                       ... 990 MB 
Max. # MO pairs treated in a batch     ... 46    
# of internal orbitals                 ... 46
# batches for internal orbitals        ... 1
Closing buffer IAV ( 0.04 GB; CompressionRatio= 1.00)
(ia|v) transformation done in     0.352 sec

  Phase 2 completed in     0.461 sec
RI-Integral transformation completed in     2.544 sec
Opening buffers                              ... done

Starting loop over batches of integrals:

Operator 0  - window                       ... (  0- 45)x( 46-258)
Operator 0  - Memory available             ...  1000 MB
Operator 0  - Memory needed per MO         ...   1.6 MB
Operator 0  - Number of orbitals per batch ... 46
Operator 0  - Number of batches            ... 1

OPERATOR  0   PASS   0:  MOs     0 ...   45
  Reading integrals       ... ok
  Internal MO   2
  Internal MO   5
  Internal MO   8
  Internal MO  11
  Internal MO  14
  Internal MO  17
  Internal MO  20
  Internal MO  23
  Internal MO  26
  Internal MO  29
  Internal MO  32
  Internal MO  35
  Internal MO  38
  Internal MO  41
  Internal MO  44
Closing buffer GIPV ( 0.04 GB; CompressionRatio= 1.00)
Time spent in pair loops =    43.546 sec

-----------------------------------------------
 RI-MP2 CORRELATION ENERGY:     -0.615860239 Eh
-----------------------------------------------


---------------------
MP2 DENSITY FORMATION
---------------------

Completing the external part of the density      ... done
Storing the unrelaxed density                    ... done

Calculating the xc-kernel                        ... done
Calculating G(D)                                 ... done
Completing the Lagrangian                        ... done
Solving the Z-vector equations                   ... 

------------------------------------------------------------------------------
                           ORCA CP-SCF CALCULATION
------------------------------------------------------------------------------

Input orbitals are from        ... PbMACl3_mp2_md2_13.orca.gbw
Input Perturbation             ... PbMACl3_mp2_md2_13.orca.pin.tmp
Wavefunction output            ... PbMACl3_mp2_md2_13.orca.pout.tmp
Perturbation mode              ... Real perturbation
Solver                         ... DIIS
   MaxDIIS                     ... 20
   Levelshift                  ...    3.000e-01 Eh
Max. number of iterations      ... 128
Convergence tolerance          ... 1.000e-08
Integral handling              ... Direct
COSX GridX                     ... 1
Number of perturbations        ... 1
Number of operators            ... 1
Orbital ranges used for CP-SCF:
 Operator 0:  Orbitals   0... 45  to  46...258
DFT calculation                         ... on
Exchange functional (SCF)               ... B88
Exchange functional (CP-SCF)            ... B88
   X-Alpha parameter    XAlpha (SCF)    ...  0.666667
   X-Alpha parameter    XAlpha (CP-SCF) ...  0.666667
   Becke's b parameter  XBeta (SCF)     ...  0.004200
   Becke's b parameter  XBeta (CP-SCF)  ...  0.004200
Correlation functional (SCF)            ... LYP
Correlation functional (CP-SCF)         ... LYP
 LDA part of GGA corr.  LDAOpt (SCF)    ... VWN-3
 LDA part of GGA corr.  LDAOpt (CP-SCF) ... VWN-3
Hybrid DFT                              ... on
   Exchange mixing (SCF)                ...  0.530
   Exchange mixing (CP-SCF)             ...  0.530
   GGA exch. scaling(SCF)               ...  0.470
   GGA exch. scaling (CP-SCF)           ...  0.470
   GGA corr. scaling (SCF)              ...  0.730
   GGA corr. scaling (CP-SCF)           ...  0.730
The RIJCOSX approximation is active
Variables per vector in CP-SCF ... 9798
Number of vectors sought       ... 1
Calculating the xc-kernel      ... done

Solving the CP-SCF equations by a DIIS algorithm

-----------------
CP-SCF ITERATIONS
-----------------
  Iteration   0: MaxR=  0.153254916
  Iteration   1: MaxR=  0.088285946
  Iteration   2: MaxR=  0.033278937
  Iteration   3: MaxR=  0.026042984
  Iteration   4: MaxR=  0.022823917
  Iteration   5: MaxR=  0.018575320
  Iteration   6: MaxR=  0.012318859
  Iteration   7: MaxR=  0.006903471
  Iteration   8: MaxR=  0.004597199
  Iteration   9: MaxR=  0.003264989
  Iteration  10: MaxR=  0.002450099
  Iteration  11: MaxR=  0.001392526
  Iteration  12: MaxR=  0.000815506
  Iteration  13: MaxR=  0.000530178
  Iteration  14: MaxR=  0.000344600
  Iteration  15: MaxR=  0.000244231
  Iteration  16: MaxR=  0.000152095
  Iteration  17: MaxR=  0.000060691
  Iteration  18: MaxR=  0.000024879
  Iteration  19: MaxR=  0.000012201
  Iteration  20: MaxR=  0.000006081
  Iteration  21: MaxR=  0.000002736
  Iteration  22: MaxR=  0.000001409
  Iteration  23: MaxR=  0.000000713
  Iteration  24: MaxR=  0.000000281
  Iteration  25: MaxR=  0.000000121
  Iteration  26: MaxR=  0.000000056
  Iteration  27: MaxR=  0.000000028
  Iteration  28: MaxR=  0.000000015
  Iteration  29: MaxR=  0.000000008
                              *** THE CP-SCF HAS CONVERGED *** 
done
Finalizing the relaxed density                   ... done
Transforming P to the AO basis                   ... done
Storing the relaxed density                      ... done

------------------------------------
ENERGY WEIGHTED DENSITY FINALIZATION
------------------------------------

Gathering the parts of the W-matrix              ... done
Forming the Z-density                            ... done
Transforming Z to the AO basis                   ... done
Calculating G(Z)                                 ... done
Finalizing the W-matrix                          ... done
Transforming W to the AO basis and storing       ... done
Entering the RIJONX and RIJCOSX sections
Starting the three-index derivative integrals:
Operator 0  - Memory available             ...  1000 MB
Operator 0  - Memory needed per MO         ...   1.0 MB
Operator 0  - Number of orbitals per batch ... 46
Operator 0  - Number of batches            ... 1

OPERATOR  0   PASS   0:  MOs     0 ...   45

----------------------------------
MP2 DERIVATIVE INTEGRAL GENERATION
----------------------------------


Input Correlated Electron Density   ... PbMACl3_mp2_md2_13.orca.pmp2re
Input Energy Weighted Density       ... PbMACl3_mp2_md2_13.orca.wmp2.tmp
Input SCF Electron Density          ... PbMACl3_mp2_md2_13.orca.scfp.tmp

One-Electron Terms    ...
  ECP gradient                                           ... One-Electron Terms done

-----------------------------------------------------------
MP2 COSX Grid Generation
-----------------------------------------------------------

General Integration Accuracy     IntAcc      ...  4.340
Radial Grid Type                 RadialGrid  ... Gauss-Chebyshev
Angular Grid (max. acc.)         AngularGrid ... Lebedev-302
Angular grid pruning method      GridPruning ... 3 (G Style)
Weight generation scheme         WeightScheme... Becke
Basis function cutoff            BFCut       ...    1.0000e-11
Integration weight cutoff        WCut        ...    1.0000e-14
Grids for H and He will be reduced by one unit

# of grid points (after initial pruning)     ...  57718 (   0.0 sec)
# of grid points (after weights+screening)   ...  53877 (   0.1 sec)
nearest neighbour list constructed           ...    0.0 sec
Grid point re-assignment to atoms done       ...    0.0 sec
Grid point division into batches done        ...    0.2 sec
Reduced shell lists constructed in    1.5 sec

Total number of grid points                  ...    53877
Total number of batches                      ...      847
Average number of points per batch           ...       63
Average number of grid points per atom       ...     4490
Average number of shells per batch           ...    61.16 (60.55%)
Average number of basis functions per batch  ...   165.25 (63.80%)
Average number of large shells per batch     ...    47.76 (78.09%)
Average number of large basis fcns per batch ...   126.44 (76.51%)
Maximum spatial batch extension              ...  36.77, 32.84, 43.71 au
Average spatial batch extension              ...   3.11,  3.04,  3.10 au

Overlap Fitting                  UseSFitting ... on
Two electron COSX terms .... 
Integration Timings:
Total Time                  =    96.7 sec
Basis fcn evaluation        =     0.7 sec
Density evaluation          =     1.0 sec
Integral evaluation         =    93.1 sec
K(P) evaluation             =     0.7 sec
                          .... COSX two electron terms done
COSX two-electron contribution to the gradient
     0:    -0.016132    -0.015857    -0.017508
     1:    -0.000277     0.021882     0.067030
     2:     0.098250    -0.080428     0.106437
     3:    -0.101648     0.096706     0.088683
     4:     0.093464     0.096468    -0.096004
     5:    -0.105114    -0.120631     0.090881
     6:     0.084675    -0.106014    -0.122143
     7:    -0.106194     0.075065    -0.141022
     8:    -0.009259    -0.033265    -0.096477
     9:    -0.025004     0.038467     0.057614
    10:     0.065701    -0.002598     0.067062
    11:     0.021187     0.030394    -0.004640
Exchange-correlation gradient    ... done
Dispersion correction            ... 
Entering the calculation of the dispersion correction...

Checking the input atom types...

Done
done

                *********************************************
                * UNRELAXED MP2 DENSITY POPULATION ANALYSIS *
                *********************************************

------------------------------------------------------------------------------
                           ORCA POPULATION ANALYSIS
------------------------------------------------------------------------------
Input electron density              ... PbMACl3_mp2_md2_13.orca.pmp2ur
BaseName (.gbw .S,...)              ... PbMACl3_mp2_md2_13.orca

                    ********************************
                    * MULLIKEN POPULATION ANALYSIS *
                    ********************************

-----------------------
MULLIKEN ATOMIC CHARGES
-----------------------
   0 C :   -0.259457
   1 N :   -0.216392
   2 H :    0.146386
   3 H :    0.148448
   4 H :    0.136940
   5 H :    0.291415
   6 H :    0.244111
   7 H :    0.260183
   8 Pb:    0.569617
   9 Cl:   -0.404948
  10 Cl:   -0.547296
  11 Cl:   -0.369006
Sum of atomic charges:    0.0000000

--------------------------------
MULLIKEN REDUCED ORBITAL CHARGES
--------------------------------
  0 C s       :     3.265987  s :     3.265987
      pz      :     0.974887  p :     2.904554
      px      :     0.988772
      py      :     0.940896
      dz2     :     0.008679  d :     0.081697
      dxz     :     0.021622
      dyz     :     0.020657
      dx2y2   :     0.010444
      dxy     :     0.020295
      f0      :     0.000473  f :     0.007219
      f+1     :     0.000662
      f-1     :     0.000878
      f+2     :     0.000976
      f-2     :     0.002730
      f+3     :     0.000674
      f-3     :     0.000825
  1 N s       :     3.415718  s :     3.415718
      pz      :     1.253776  p :     3.722846
      px      :     1.231194
      py      :     1.237876
      dz2     :     0.010569  d :     0.074342
      dxz     :     0.015804
      dyz     :     0.014520
      dx2y2   :     0.017352
      dxy     :     0.016097
      f0      :     0.000237  f :     0.003487
      f+1     :     0.000378
      f-1     :     0.000392
      f+2     :     0.000370
      f-2     :     0.001294
      f+3     :     0.000398
      f-3     :     0.000418
  2 H s       :     0.830796  s :     0.830796
      pz      :     0.008563  p :     0.022817
      px      :     0.008031
      py      :     0.006224
  3 H s       :     0.828764  s :     0.828764
      pz      :     0.007211  p :     0.022788
      px      :     0.007898
      py      :     0.007679
  4 H s       :     0.840469  s :     0.840469
      pz      :     0.007022  p :     0.022591
      px      :     0.007701
      py      :     0.007868
  5 H s       :     0.652526  s :     0.652526
      pz      :     0.011399  p :     0.056058
      px      :     0.024811
      py      :     0.019848
  6 H s       :     0.705528  s :     0.705528
      pz      :     0.011700  p :     0.050361
      px      :     0.013072
      py      :     0.025590
  7 H s       :     0.691999  s :     0.691999
      pz      :     0.014383  p :     0.047819
      px      :     0.024352
      py      :     0.009084
  8 Pbs       :     3.897716  s :     3.897716
      pz      :     2.404580  p :     7.361053
      px      :     2.406966
      py      :     2.549507
      dz2     :     2.014947  d :    10.070528
      dxz     :     2.008902
      dyz     :     2.019550
      dx2y2   :     2.013555
      dxy     :     2.013573
      f0      :     0.022978  f :     0.101086
      f+1     :     0.012271
      f-1     :     0.015803
      f+2     :     0.018483
      f-2     :     0.012875
      f+3     :     0.009350
      f-3     :     0.009327
  9 Cls       :     5.917649  s :     5.917649
      pz      :     3.771217  p :    11.280655
      px      :     3.598403
      py      :     3.911034
      dz2     :     0.026466  d :     0.194988
      dxz     :     0.064181
      dyz     :     0.019904
      dx2y2   :     0.047409
      dxy     :     0.037027
      f0      :     0.001145  f :     0.011657
      f+1     :     0.001871
      f-1     :     0.000685
      f+2     :     0.002310
      f-2     :     0.001315
      f+3     :     0.002114
      f-3     :     0.002217
 10 Cls       :     5.945545  s :     5.945545
      pz      :     3.770533  p :    11.491485
      px      :     3.901276
      py      :     3.819675
      dz2     :     0.015300  d :     0.103643
      dxz     :     0.020868
      dyz     :     0.023623
      dx2y2   :     0.024326
      dxy     :     0.019525
      f0      :     0.000774  f :     0.006624
      f+1     :     0.000780
      f-1     :     0.000732
      f+2     :     0.001117
      f-2     :     0.000863
      f+3     :     0.001328
      f-3     :     0.001029
 11 Cls       :     5.919076  s :     5.919076
      pz      :     3.593774  p :    11.256964
      px      :     3.774065
      py      :     3.889125
      dz2     :     0.038775  d :     0.181312
      dxz     :     0.043658
      dyz     :     0.019326
      dx2y2   :     0.048671
      dxy     :     0.030882
      f0      :     0.001849  f :     0.011655
      f+1     :     0.001812
      f-1     :     0.000866
      f+2     :     0.002127
      f-2     :     0.001275
      f+3     :     0.001976
      f-3     :     0.001750


                     *******************************
                     * LOEWDIN POPULATION ANALYSIS *
                     *******************************

----------------------
LOEWDIN ATOMIC CHARGES
----------------------
   0 C :   -0.301523
   1 N :   -0.029489
   2 H :    0.121100
   3 H :    0.121360
   4 H :    0.117316
   5 H :    0.125375
   6 H :    0.120276
   7 H :    0.140028
   8 Pb:   -0.084362
   9 Cl:   -0.081051
  10 Cl:   -0.139398
  11 Cl:   -0.109633

-------------------------------
LOEWDIN REDUCED ORBITAL CHARGES
-------------------------------
  0 C s       :     2.853482  s :     2.853482
      pz      :     1.035818  p :     3.088436
      px      :     1.041967
      py      :     1.010651
      dz2     :     0.030652  d :     0.320771
      dxz     :     0.084276
      dyz     :     0.085204
      dx2y2   :     0.034505
      dxy     :     0.086134
      f0      :     0.005476  f :     0.038833
      f+1     :     0.004057
      f-1     :     0.005804
      f+2     :     0.004721
      f-2     :     0.007495
      f+3     :     0.005176
      f-3     :     0.006105
  1 N s       :     3.025466  s :     3.025466
      pz      :     1.224559  p :     3.764046
      px      :     1.275339
      py      :     1.264147
      dz2     :     0.028744  d :     0.227043
      dxz     :     0.052465
      dyz     :     0.047994
      dx2y2   :     0.046605
      dxy     :     0.051236
      f0      :     0.001709  f :     0.012934
      f+1     :     0.001571
      f-1     :     0.001737
      f+2     :     0.001289
      f-2     :     0.002180
      f+3     :     0.002170
      f-3     :     0.002276
  2 H s       :     0.814670  s :     0.814670
      pz      :     0.023390  p :     0.064230
      px      :     0.022201
      py      :     0.018639
  3 H s       :     0.814409  s :     0.814409
      pz      :     0.019950  p :     0.064231
      px      :     0.023287
      py      :     0.020994
  4 H s       :     0.819205  s :     0.819205
      pz      :     0.021134  p :     0.063479
      px      :     0.021145
      py      :     0.021199
  5 H s       :     0.712165  s :     0.712165
      pz      :     0.034181  p :     0.162460
      px      :     0.074643
      py      :     0.053635
  6 H s       :     0.723122  s :     0.723122
      pz      :     0.034219  p :     0.156602
      px      :     0.041981
      py      :     0.080401
  7 H s       :     0.713077  s :     0.713077
      pz      :     0.040862  p :     0.146894
      px      :     0.076981
      py      :     0.029051
  8 Pbs       :     3.701949  s :     3.701949
      pz      :     2.609383  p :     7.702828
      px      :     2.496033
      py      :     2.597411
      dz2     :     2.121968  d :    10.450887
      dxz     :     2.095314
      dyz     :     2.106163
      dx2y2   :     2.066715
      dxy     :     2.060727
      f0      :     0.060439  f :     0.228699
      f+1     :     0.026417
      f-1     :     0.032919
      f+2     :     0.045136
      f-2     :     0.028246
      f+3     :     0.019406
      f-3     :     0.016135
  9 Cls       :     5.620039  s :     5.620039
      pz      :     3.677997  p :    10.997644
      px      :     3.542483
      py      :     3.777165
      dz2     :     0.046629  d :     0.429587
      dxz     :     0.163775
      dyz     :     0.028475
      dx2y2   :     0.131233
      dxy     :     0.059475
      f0      :     0.003772  f :     0.033781
      f+1     :     0.004365
      f-1     :     0.001055
      f+2     :     0.009488
      f-2     :     0.002865
      f+3     :     0.007420
      f-3     :     0.004815
 10 Cls       :     5.693927  s :     5.693927
      pz      :     3.719763  p :    11.246307
      px      :     3.764949
      py      :     3.761595
      dz2     :     0.025197  d :     0.186187
      dxz     :     0.032142
      dyz     :     0.042083
      dx2y2   :     0.056744
      dxy     :     0.030020
      f0      :     0.001503  f :     0.012979
      f+1     :     0.001387
      f-1     :     0.001162
      f+2     :     0.002300
      f-2     :     0.001697
      f+3     :     0.002894
      f-3     :     0.002035
 11 Cls       :     5.633489  s :     5.633489
      pz      :     3.557288  p :    11.029646
      px      :     3.662101
      py      :     3.810257
      dz2     :     0.075181  d :     0.412238
      dxz     :     0.112136
      dyz     :     0.033235
      dx2y2   :     0.140375
      dxy     :     0.051312
      f0      :     0.006009  f :     0.034259
      f+1     :     0.004126
      f-1     :     0.001387
      f+2     :     0.007955
      f-2     :     0.002560
      f+3     :     0.008006
      f-3     :     0.004215


                      *****************************
                      * MAYER POPULATION ANALYSIS *
                      *****************************

  NA   - Mulliken gross atomic population
  ZA   - Total nuclear charge
  QA   - Mulliken gross atomic charge
  VA   - Mayer's total valence
  BVA  - Mayer's bonded valence
  FA   - Mayer's free valence

  ATOM       NA         ZA         QA         VA         BVA        FA
  0 C      6.2595     6.0000    -0.2595     3.9134     3.7955     0.1179
  1 N      7.2164     7.0000    -0.2164     3.3118     3.1558     0.1560
  2 H      0.8536     1.0000     0.1464     0.9756     0.9560     0.0197
  3 H      0.8516     1.0000     0.1484     0.9733     0.9537     0.0196
  4 H      0.8631     1.0000     0.1369     0.9666     0.9474     0.0192
  5 H      0.7086     1.0000     0.2914     0.9465     0.9223     0.0242
  6 H      0.7559     1.0000     0.2441     0.9952     0.9692     0.0259
  7 H      0.7398     1.0000     0.2602     0.9874     0.9619     0.0255
  8 Pb    21.4304    22.0000     0.5696     2.4520     1.9837     0.4683
  9 Cl    17.4049    17.0000    -0.4049     1.3461     1.0172     0.3290
 10 Cl    17.5473    17.0000    -0.5473     0.9876     0.7036     0.2840
 11 Cl    17.3690    17.0000    -0.3690     1.3318     0.9994     0.3324

  Mayer bond orders larger than 0.1
B(  0-C ,  1-N ) :   0.9007 B(  0-C ,  2-H ) :   0.9549 B(  0-C ,  3-H ) :   0.9532 
B(  0-C ,  4-H ) :   0.9562 B(  1-N ,  5-H ) :   0.7936 B(  1-N ,  6-H ) :   0.7751 
B(  1-N ,  7-H ) :   0.8010 B(  5-H , 11-Cl) :   0.1313 B(  6-H ,  9-Cl) :   0.1604 
B(  7-H , 10-Cl) :   0.1295 B(  8-Pb,  9-Cl) :   0.6867 B(  8-Pb, 10-Cl) :   0.5706 
B(  8-Pb, 11-Cl) :   0.6871 B(  9-Cl, 11-Cl) :   0.1788 


                *******************************************
                * RELAXED MP2 DENSITY POPULATION ANALYSIS *
                *******************************************

------------------------------------------------------------------------------
                           ORCA POPULATION ANALYSIS
------------------------------------------------------------------------------
Input electron density              ... PbMACl3_mp2_md2_13.orca.pmp2re
BaseName (.gbw .S,...)              ... PbMACl3_mp2_md2_13.orca

                    ********************************
                    * MULLIKEN POPULATION ANALYSIS *
                    ********************************

-----------------------
MULLIKEN ATOMIC CHARGES
-----------------------
   0 C :   -0.280065
   1 N :   -0.218785
   2 H :    0.148209
   3 H :    0.153463
   4 H :    0.144735
   5 H :    0.279201
   6 H :    0.254938
   7 H :    0.259820
   8 Pb:    0.409158
   9 Cl:   -0.333668
  10 Cl:   -0.531257
  11 Cl:   -0.285750
Sum of atomic charges:    0.0000000

--------------------------------
MULLIKEN REDUCED ORBITAL CHARGES
--------------------------------
  0 C s       :     3.270546  s :     3.270546
      pz      :     0.981656  p :     2.924837
      px      :     0.995740
      py      :     0.947441
      dz2     :     0.008921  d :     0.077621
      dxz     :     0.020194
      dyz     :     0.019001
      dx2y2   :     0.010543
      dxy     :     0.018961
      f0      :     0.000460  f :     0.007061
      f+1     :     0.000650
      f-1     :     0.000857
      f+2     :     0.000966
      f-2     :     0.002652
      f+3     :     0.000667
      f-3     :     0.000809
  1 N s       :     3.422838  s :     3.422838
      pz      :     1.249421  p :     3.719077
      px      :     1.230566
      py      :     1.239090
      dz2     :     0.010775  d :     0.073452
      dxz     :     0.015396
      dyz     :     0.014006
      dx2y2   :     0.017971
      dxy     :     0.015305
      f0      :     0.000238  f :     0.003418
      f+1     :     0.000374
      f-1     :     0.000388
      f+2     :     0.000371
      f-2     :     0.001245
      f+3     :     0.000392
      f-3     :     0.000410
  2 H s       :     0.829344  s :     0.829344
      pz      :     0.008411  p :     0.022447
      px      :     0.007898
      py      :     0.006138
  3 H s       :     0.824054  s :     0.824054
      pz      :     0.007121  p :     0.022483
      px      :     0.007773
      py      :     0.007588
  4 H s       :     0.832979  s :     0.832979
      pz      :     0.006934  p :     0.022287
      px      :     0.007576
      py      :     0.007776
  5 H s       :     0.664884  s :     0.664884
      pz      :     0.011461  p :     0.055914
      px      :     0.025063
      py      :     0.019390
  6 H s       :     0.696049  s :     0.696049
      pz      :     0.011563  p :     0.049013
      px      :     0.012724
      py      :     0.024726
  7 H s       :     0.692653  s :     0.692653
      pz      :     0.014480  p :     0.047527
      px      :     0.024043
      py      :     0.009004
  8 Pbs       :     3.923009  s :     3.923009
      pz      :     2.361487  p :     7.508061
      px      :     2.443085
      py      :     2.703489
      dz2     :     2.013420  d :    10.063542
      dxz     :     2.007813
      dyz     :     2.019392
      dx2y2   :     2.010339
      dxy     :     2.012579
      f0      :     0.021196  f :     0.096230
      f+1     :     0.012012
      f-1     :     0.015488
      f+2     :     0.016991
      f-2     :     0.012510
      f+3     :     0.009179
      f-3     :     0.008854
  9 Cls       :     5.925279  s :     5.925279
      pz      :     3.771266  p :    11.198428
      px      :     3.518832
      py      :     3.908330
      dz2     :     0.028186  d :     0.198201
      dxz     :     0.061913
      dyz     :     0.021032
      dx2y2   :     0.047561
      dxy     :     0.039509
      f0      :     0.001127  f :     0.011760
      f+1     :     0.001919
      f-1     :     0.000698
      f+2     :     0.002240
      f-2     :     0.001349
      f+3     :     0.002124
      f-3     :     0.002304
 10 Cls       :     5.945892  s :     5.945892
      pz      :     3.772758  p :    11.473906
      px      :     3.886288
      py      :     3.814860
      dz2     :     0.015683  d :     0.104861
      dxz     :     0.021320
      dyz     :     0.022878
      dx2y2   :     0.025188
      dxy     :     0.019792
      f0      :     0.000771  f :     0.006598
      f+1     :     0.000781
      f-1     :     0.000713
      f+2     :     0.001117
      f-2     :     0.000861
      f+3     :     0.001319
      f-3     :     0.001035
 11 Cls       :     5.927717  s :     5.927717
      pz      :     3.601888  p :    11.155804
      px      :     3.671888
      py      :     3.882027
      dz2     :     0.039272  d :     0.190343
      dxz     :     0.046290
      dyz     :     0.021076
      dx2y2   :     0.049922
      dxy     :     0.033782
      f0      :     0.001845  f :     0.011887
      f+1     :     0.001844
      f-1     :     0.000902
      f+2     :     0.002161
      f-2     :     0.001314
      f+3     :     0.001992
      f-3     :     0.001828


                     *******************************
                     * LOEWDIN POPULATION ANALYSIS *
                     *******************************

----------------------
LOEWDIN ATOMIC CHARGES
----------------------
   0 C :   -0.311694
   1 N :   -0.031930
   2 H :    0.122235
   3 H :    0.124053
   4 H :    0.120721
   5 H :    0.121401
   6 H :    0.126772
   7 H :    0.139812
   8 Pb:   -0.220825
   9 Cl:   -0.015733
  10 Cl:   -0.131818
  11 Cl:   -0.042995

-------------------------------
LOEWDIN REDUCED ORBITAL CHARGES
-------------------------------
  0 C s       :     2.855101  s :     2.855101
      pz      :     1.039953  p :     3.101493
      px      :     1.046474
      py      :     1.015066
      dz2     :     0.030810  d :     0.316503
      dxz     :     0.083047
      dyz     :     0.083279
      dx2y2   :     0.034608
      dxy     :     0.084758
      f0      :     0.005473  f :     0.038597
      f+1     :     0.004025
      f-1     :     0.005772
      f+2     :     0.004655
      f-2     :     0.007432
      f+3     :     0.005167
      f-3     :     0.006071
  1 N s       :     3.028510  s :     3.028510
      pz      :     1.226596  p :     3.761999
      px      :     1.271811
      py      :     1.263593
      dz2     :     0.029114  d :     0.228468
      dxz     :     0.052357
      dyz     :     0.048037
      dx2y2   :     0.047216
      dxy     :     0.051744
      f0      :     0.001759  f :     0.012953
      f+1     :     0.001557
      f-1     :     0.001727
      f+2     :     0.001288
      f-2     :     0.002164
      f+3     :     0.002187
      f-3     :     0.002271
  2 H s       :     0.813411  s :     0.813411
      pz      :     0.023435  p :     0.064354
      px      :     0.022246
      py      :     0.018673
  3 H s       :     0.811477  s :     0.811477
      pz      :     0.020016  p :     0.064470
      px      :     0.023346
      py      :     0.021108
  4 H s       :     0.815528  s :     0.815528
      pz      :     0.021218  p :     0.063752
      px      :     0.021199
      py      :     0.021335
  5 H s       :     0.716213  s :     0.716213
      pz      :     0.033995  p :     0.162386
      px      :     0.075343
      py      :     0.053047
  6 H s       :     0.719520  s :     0.719520
      pz      :     0.033761  p :     0.153708
      px      :     0.041412
      py      :     0.078535
  7 H s       :     0.712747  s :     0.712747
      pz      :     0.041576  p :     0.147441
      px      :     0.076891
      py      :     0.028974
  8 Pbs       :     3.717719  s :     3.717719
      pz      :     2.570154  p :     7.823723
      px      :     2.522662
      py      :     2.730907
      dz2     :     2.124156  d :    10.453706
      dxz     :     2.095881
      dyz     :     2.111478
      dx2y2   :     2.063103
      dxy     :     2.059087
      f0      :     0.059484  f :     0.225677
      f+1     :     0.026247
      f-1     :     0.033211
      f+2     :     0.043799
      f-2     :     0.027842
      f+3     :     0.019601
      f-3     :     0.015492
  9 Cls       :     5.617349  s :     5.617349
      pz      :     3.684878  p :    10.952182
      px      :     3.487355
      py      :     3.779949
      dz2     :     0.047223  d :     0.413773
      dxz     :     0.154004
      dyz     :     0.030118
      dx2y2   :     0.120324
      dxy     :     0.062105
      f0      :     0.003443  f :     0.032429
      f+1     :     0.004418
      f-1     :     0.001054
      f+2     :     0.008816
      f-2     :     0.002889
      f+3     :     0.006960
      f-3     :     0.004848
 10 Cls       :     5.698421  s :     5.698421
      pz      :     3.724177  p :    11.233347
      px      :     3.752258
      py      :     3.756913
      dz2     :     0.025453  d :     0.187121
      dxz     :     0.033519
      dyz     :     0.041410
      dx2y2   :     0.056446
      dxy     :     0.030293
      f0      :     0.001491  f :     0.012928
      f+1     :     0.001381
      f-1     :     0.001153
      f+2     :     0.002291
      f-2     :     0.001737
      f+3     :     0.002855
      f-3     :     0.002019
 11 Cls       :     5.633666  s :     5.633666
      pz      :     3.568303  p :    10.969355
      px      :     3.593167
      py      :     3.807885
      dz2     :     0.078590  d :     0.406692
      dxz     :     0.108147
      dyz     :     0.034928
      dx2y2   :     0.131347
      dxy     :     0.053680
      f0      :     0.005985  f :     0.033282
      f+1     :     0.004054
      f-1     :     0.001447
      f+2     :     0.007418
      f-2     :     0.002541
      f+3     :     0.007594
      f-3     :     0.004243


                      *****************************
                      * MAYER POPULATION ANALYSIS *
                      *****************************

  NA   - Mulliken gross atomic population
  ZA   - Total nuclear charge
  QA   - Mulliken gross atomic charge
  VA   - Mayer's total valence
  BVA  - Mayer's bonded valence
  FA   - Mayer's free valence

  ATOM       NA         ZA         QA         VA         BVA        FA
  0 C      6.2801     6.0000    -0.2801     3.9131     3.7953     0.1177
  1 N      7.2188     7.0000    -0.2188     3.3477     3.1922     0.1555
  2 H      0.8518     1.0000     0.1482     0.9741     0.9547     0.0194
  3 H      0.8465     1.0000     0.1535     0.9735     0.9541     0.0194
  4 H      0.8553     1.0000     0.1447     0.9643     0.9455     0.0188
  5 H      0.7208     1.0000     0.2792     0.9568     0.9337     0.0231
  6 H      0.7451     1.0000     0.2549     0.9639     0.9447     0.0192
  7 H      0.7402     1.0000     0.2598     0.9944     0.9707     0.0238
  8 Pb    21.5908    22.0000     0.4092     2.4741     2.1086     0.3654
  9 Cl    17.3337    17.0000    -0.3337     1.4691     1.1952     0.2740
 10 Cl    17.5313    17.0000    -0.5313     1.0303     0.7546     0.2757
 11 Cl    17.2858    17.0000    -0.2858     1.4862     1.2192     0.2670

  Mayer bond orders larger than 0.1
B(  0-C ,  1-N ) :   0.9047 B(  0-C ,  2-H ) :   0.9514 B(  0-C ,  3-H ) :   0.9489 
B(  0-C ,  4-H ) :   0.9528 B(  1-N ,  5-H ) :   0.7882 B(  1-N ,  6-H ) :   0.7820 
B(  1-N ,  7-H ) :   0.7911 B(  5-H , 11-Cl) :   0.1314 B(  6-H ,  9-Cl) :   0.1341 
B(  7-H , 10-Cl) :   0.1343 B(  8-Pb,  9-Cl) :   0.7389 B(  8-Pb, 10-Cl) :   0.5520 
B(  8-Pb, 11-Cl) :   0.7569 B(  9-Cl, 11-Cl) :   0.3011 


-------
TIMINGS
-------

Total time                :  763.930 sec
Integral trafo            :    2.553 sec (  0.3%)
I/O of integrals          :    0.140 sec (  0.0%)
K(i,j) Operators          :    5.899 sec (  0.8%)
T(i,j) pair energies      :    1.120 sec (  0.1%)
V-calculation             :    0.012 sec (  0.0%)
V**(-1/2)                 :    0.027 sec (  0.0%)
Gamma(ia|P)               :    5.315 sec (  0.7%)
Gamma-Trafo               :    0.742 sec (  0.1%)
D(virtual)                :    2.356 sec (  0.3%)
D(internal)               :    3.799 sec (  0.5%)
W(virtual)                :    4.716 sec (  0.6%)
W(internal)               :   13.308 sec (  1.7%)
L(virtual)                :    5.733 sec (  0.8%)
L(internal)               :    0.205 sec (  0.0%)
G(D)                      :   15.455 sec (  2.0%)
G(Z)                      :   15.946 sec (  2.1%)
Z-Vector Solution         :  566.875 sec ( 74.2%)
Z-Vector Solution         :  566.875 sec ( 74.2%)
3-Index Derivative 
+ Separable RIJ part      :    4.422 sec (  0.6%)
2-Index Derivative 
+ Separable RIJ part      :    0.026 sec (  0.0%)
Separable Gradient (COSX) :  113.688 sec ( 14.9%)


---------------------------------------
MP2 TOTAL ENERGY:    -1669.190764763 Eh
---------------------------------------

The final MP2 gradient
  0:  -0.00104280   0.00240255   0.00286296
  1:  -0.07637722  -0.05868466   0.00849917
  2:   0.00172031  -0.00168364   0.00229950
  3:  -0.00141112   0.00243559   0.00218509
  4:   0.00195238   0.00173379  -0.00324652
  5:  -0.01965447  -0.02343617  -0.00164082
  6:  -0.01259115  -0.01891255  -0.01518516
  7:  -0.01655512  -0.00732527  -0.01753080
  8:   0.02818012   0.00398012   0.06480986
  9:  -0.23636687   0.08036150   0.07973195
 10:   0.15290035  -0.06246609   0.03281964
 11:   0.17887025   0.08176200  -0.15569744

-----------------------------------
NORM OF THE MP2 GRADIENT:  0.420357
-----------------------------------

Entering the calculation of the dispersion correction...

Checking the input atom types...

Done


-------------------------------------------------------------------------------
                          DFT DISPERSION CORRECTION                            
                                                                               
                                DFTD3 V2.1  Rev 6                               
                          USING Becke-Johnson damping                          
-------------------------------------------------------------------------------
The B2PLYP functional is recognized
Active option DFTDOPT                   ...         4   

molecular C6(AA) [au] = 4858.364616 


            DFT-D V3
 parameters
 s6 scaling factor         :     0.6400 
 a1 scaling factor         :     0.3065 
 s8 scaling factor         :     0.9147 
 a2 scaling factor         :     5.0570 
 ad hoc parameters k1-k3   :    16.0000     1.3333    -4.0000 

 Edisp/kcal,au: -10.534828245071  -0.016788315646 
 E6   /kcal   :  -4.829161944 
 E8   /kcal   :  -5.705666301 
 % E8         :  54.160031550 

-------------------------   ----------------
Dispersion correction           -0.016788316
-------------------------   ----------------


-------------------------   --------------------
FINAL SINGLE POINT ENERGY     -1669.207553078177
-------------------------   --------------------


                            ***************************************
                            *     ORCA property calculations      *
                            ***************************************


  WARNING: The energy has been calculated at the MP2 level but the densities
           used in the property calculations are still SCF densities
           MP2 response densities have not been calculated 
           use %mp2 Density relaxed end
           or  %mp2 Density unrelaxed end

                                    ---------------------
                                    Active property flags
                                    ---------------------
   (+) Dipole Moment


------------------------------------------------------------------------------
                       ORCA ELECTRIC PROPERTIES CALCULATION
------------------------------------------------------------------------------

Dipole Moment Calculation                       ... on
Quadrupole Moment Calculation                   ... off
Polarizability Calculation                      ... off
GBWName                                         ... PbMACl3_mp2_md2_13.orca.gbw
Electron density file                           ... PbMACl3_mp2_md2_13.orca.scfp.tmp

-------------
DIPOLE MOMENT
-------------
                                X             Y             Z
Electronic contribution:    -55.16263     -65.83957    -125.26445
Nuclear contribution   :     56.33710      67.18930     124.15009
                        -----------------------------------------
Total Dipole Moment    :      1.17447       1.34972      -1.11436
                        -----------------------------------------
Magnitude (a.u.)       :      2.10783
Magnitude (Debye)      :      5.35767


                         *** MP2 UNRELAXED DENSITY ***

------------------------------------------------------------------------------
                       ORCA ELECTRIC PROPERTIES CALCULATION
------------------------------------------------------------------------------

Dipole Moment Calculation                       ... on
Quadrupole Moment Calculation                   ... off
Polarizability Calculation                      ... off
GBWName                                         ... PbMACl3_mp2_md2_13.orca.gbw
Electron density file                           ... PbMACl3_mp2_md2_13.orca.pmp2ur

-------------
DIPOLE MOMENT
-------------
                                X             Y             Z
Electronic contribution:    -55.12910     -65.85719    -125.14745
Nuclear contribution   :     56.33710      67.18930     124.15009
                        -----------------------------------------
Total Dipole Moment    :      1.20800       1.33211      -0.99736
                        -----------------------------------------
Magnitude (a.u.)       :      2.05633
Magnitude (Debye)      :      5.22679


                           *** MP2 RELAXED DENSITY ***

------------------------------------------------------------------------------
                       ORCA ELECTRIC PROPERTIES CALCULATION
------------------------------------------------------------------------------

Dipole Moment Calculation                       ... on
Quadrupole Moment Calculation                   ... off
Polarizability Calculation                      ... off
GBWName                                         ... PbMACl3_mp2_md2_13.orca.gbw
Electron density file                           ... PbMACl3_mp2_md2_13.orca.pmp2re

-------------
DIPOLE MOMENT
-------------
                                X             Y             Z
Electronic contribution:    -54.91429     -65.92231    -124.70031
Nuclear contribution   :     56.33710      67.18930     124.15009
                        -----------------------------------------
Total Dipole Moment    :      1.42281       1.26699      -0.55022
                        -----------------------------------------
Magnitude (a.u.)       :      1.98302
Magnitude (Debye)      :      5.04045


Timings for individual modules:

Sum of individual times         ...     1449.771 sec (=  24.163 min)
GTO integral calculation        ...        0.577 sec (=   0.010 min)   0.0 %
SCF iterations                  ...      685.113 sec (=  11.419 min)  47.3 %
MP2 module                      ...      764.080 sec (=  12.735 min)  52.7 %
                             ****ORCA TERMINATED NORMALLY****
TOTAL RUN TIME: 0 days 0 hours 24 minutes 10 seconds 263 msec
