
                                 *****************
                                 * O   R   C   A *
                                 *****************

           --- An Ab Initio, DFT and Semiempirical electronic structure package ---

                  #######################################################
                  #                        -***-                        #
                  #  Department of molecular theory and spectroscopy    #
                  #              Directorship: Frank Neese              #
                  # Max Planck Institute for Chemical Energy Conversion #
                  #                  D-45470 Muelheim/Ruhr              #
                  #                       Germany                       #
                  #                                                     #
                  #                  All rights reserved                #
                  #                        -***-                        #
                  #######################################################


                         Program Version 3.0.3 - RELEASE   -


 With contributions from (in alphabetic order):
   Ute Becker             : Parallelization
   Dmytro Bykov           : SCF Hessian
   Dmitry Ganyushin       : Spin-Orbit,Spin-Spin,Magnetic field MRCI
   Andreas Hansen         : Spin unrestricted coupled pair/coupled cluster methods
   Dimitrios Liakos       : Extrapolation schemes; parallel MDCI
   Robert Izsak           : Overlap fitted RIJCOSX, COSX-SCS-MP3
   Christian Kollmar      : KDIIS, OOCD, Brueckner-CCSD(T), CCSD density
   Simone Kossmann        : Meta GGA functionals, TD-DFT gradient, OOMP2, MP2 Hessian
   Taras Petrenko         : DFT Hessian,TD-DFT gradient, ASA and ECA modules, normal mode analysis, Resonance Raman, ABS, FL, XAS/XES, NRVS
   Christoph Reimann      : Effective Core Potentials
   Michael Roemelt        : Restricted open shell CIS
   Christoph Riplinger    : Improved optimizer, TS searches, QM/MM, DLPNO-CCSD
   Barbara Sandhoefer     : DKH picture change effects
   Igor Schapiro          : Molecular dynamics
   Kantharuban Sivalingam : CASSCF convergence, NEVPT2
   Boris Wezisla          : Elementary symmetry handling
   Frank Wennmohs         : Technical directorship


 We gratefully acknowledge several colleagues who have allowed us to
 interface, adapt or use parts of their codes:
   Stefan Grimme, W. Hujo, H. Kruse, T. Risthaus : VdW corrections, initial TS optimization,
                                                   DFT functionals, gCP
   Ed Valeev                                     : LibInt (2-el integral package), F12 methods
   Garnet Chan, S. Sharma, R. Olivares           : DMRG
   Ulf Ekstrom                                   : XCFun DFT Library
   Mihaly Kallay                                 : mrcc  (arbitrary order and MRCC methods)
   Andreas Klamt, Michael Diedenhofen            : otool_cosmo (COSMO solvation model)
   Frank Weinhold                                : gennbo (NPA and NBO analysis)
   Christopher J. Cramer and Donald G. Truhlar   : smd solvation model


 Your calculation uses the libint2 library for the computation of 2-el integrals
 For citations please refer to: http://libint.valeyev.net

 This ORCA versions uses:
   CBLAS   interface :  Fast vector & matrix operations
   LAPACKE interface :  Fast linear algebra routines
   SCALAPACK package :  Parallel linear algebra routines


Your calculation utilizes the basis: Ahlrichs-TZV
Cite in your paper:
H - Kr: A. Schaefer, H. Horn and R. Ahlrichs, J. Chem. Phys. 97, 2571 (1992).

The def2-TZV basis will be loaded
Cite in your paper:
 	F. Weigend, R. Ahlrichs, Phys. Chem. Chem. Phys. 2005, 7, 3297.

Your calculation utilizes the atom-pairwise dispersion correction
with the Becke-Johnson damping scheme (D3BJ)
Cite in your paper:
S.Grimme, S.Ehrlich, L.Goerigk, J Comput Chem, (2011), 32, 1456–1465 
S.Grimme, J.Antony, S.Ehrlich and H.Krieg, J.Chem.Phys., 132, (2010), 154104 
   

================================================================================
                                        WARNINGS
                       Please study these warnings very carefully!
================================================================================

WARNING: The RI method has been chosen with no auxiliary basis (AUX or GTOAUX in BASIS block)
        Standard TZV/J expansion basis used (GTOAUX=TZV_J)

Now building the actual basis set
cite the ECPs for Pb [SD(60,MDF)] as follows:
  B. Metz, H. Stoll, M. Dolg, J. Chem. Phys. 113, 2563 (2000).

ECP parameters for Pb [SD(60,MDF)] have been obtained from:
  pseudopotential library of the Stuttgart/Cologne group
  http://www.theochem.uni-stuttgart.de/pseudopotentials/

cite the ECP basis sets for Pb [DEF2-TZVP] as follows:
  F. Weigend, R. Ahlrichs; Phys. Chem. Chem. Phys. 7, 3297(2005).

ECP basis sets for Pb [DEF2-TZVP] have been obtained from:
  Turbomole basis set library
  ftp://ftp.chemie.uni-karlsruhe.de/pub/basen/



INFO   : the flag for use of LIBINT has been found!

================================================================================
                                       INPUT FILE
================================================================================
NAME = PbMACl3_mp2_md2_14.orca
|  1> ! RIJCOSX RI-B2PLYP D3BJ def2-TZVP ECP{def2-TZVP} TIGHTSCF Grid5 FinalGrid6 SlowConv MORead
|  2> %method
|  3>  RunTyp Gradient
|  4>  end
|  5> %maxcore 1000
|  6> %moinp "previous.gbw"
|  7> *xyz 0 1
|  8> C -0.394281 0.276013 -0.426662 
|  9> N -1.165380 -0.685592 -1.253010 
| 10> H 0.248796 -0.278576 0.260517 
| 11> H -1.090820 0.897444 0.140826 
| 12> H 0.215705 0.904875 -1.079130 
| 13> H -1.783150 -1.324970 -0.698370 
| 14> H -0.582260 -1.326300 -1.835140 
| 15> H -1.813140 -0.240924 -1.938260 
| 16> Pb -2.974530 -2.987890 -2.953930 
| 17> Cl -0.471630 -2.944990 -3.133910 
| 18> Cl -3.379440 -0.506106 -3.275620 
| 19> Cl -3.277680 -3.166810 -0.474160 
| 20> *
| 21> 
| 22>                          ****END OF INPUT****
================================================================================

                     *******************************
                     * Energy+Gradient Calculation *
                     *******************************

---------------------------------
CARTESIAN COORDINATES (ANGSTROEM)
---------------------------------
  C     -0.394281    0.276013   -0.426662
  N     -1.165380   -0.685592   -1.253010
  H      0.248796   -0.278576    0.260517
  H     -1.090820    0.897444    0.140826
  H      0.215705    0.904875   -1.079130
  H     -1.783150   -1.324970   -0.698370
  H     -0.582260   -1.326300   -1.835140
  H     -1.813140   -0.240924   -1.938260
  Pb    -2.974530   -2.987890   -2.953930
  Cl    -0.471630   -2.944990   -3.133910
  Cl    -3.379440   -0.506106   -3.275620
  Cl    -3.277680   -3.166810   -0.474160

----------------------------
CARTESIAN COORDINATES (A.U.)
----------------------------
  NO LB      ZA    FRAG    MASS        X           Y           Z
   0 C     6.0000    0    12.011         -0.745083109808605          0.521588979402006         -0.806274331751109
   1 N     7.0000    0    14.007         -2.202249041949148         -1.295581119607339         -2.367845743064668
   2 H     1.0000    0     1.008          0.470156303215072         -0.526432347483247          0.492305783230763
   3 H     1.0000    0     1.008         -2.061351061403979          1.695923380530824          0.266122572535594
   4 H     1.0000    0     1.008          0.407623375717484          1.709965935431992         -2.039260162898440
   5 H     1.0000    0     1.008         -3.369665155701680         -2.503830435661641         -1.319728040146585
   6 H     1.0000    0     1.008         -1.100311938736988         -2.506343771419756         -3.467912017404246
   7 H     1.0000    0     1.008         -3.426338042457978         -0.455280379088844         -3.662780576334205
   8 Pb   22.0000*   0   207.200  -5.621047077132781  -5.646293818281969  -5.582118718774003
   9 Cl   17.0000    0    35.453         -0.891251536541280         -5.565224567136747         -5.922231628357150
  10 Cl   17.0000    0    35.453         -6.386216086018835         -0.956401734734349         -6.190024718795130
  11 Cl   17.0000    0    35.453         -6.193917554631009         -5.984403618163158         -0.896032543660101
* core charge reduced due to ECP

--------------------------------
INTERNAL COORDINATES (ANGSTROEM)
--------------------------------
 C      0   0   0   0.000000     0.000     0.000
 N      1   0   0   1.483957     0.000     0.000
 H      1   2   0   1.092397   109.099     0.000
 H      1   2   3   1.092422   109.061   240.173
 H      1   2   3   1.092367   109.305   120.114
 H      2   1   3   1.047888   114.015    60.210
 H      2   1   3   1.043749   114.711   299.789
 H      2   1   3   1.042540   114.361   179.708
 Pb     6   2   1   3.045035    99.893   180.906
 Cl     7   2   1   2.078268   148.914   174.679
 Cl     8   2   1   2.076571   146.876   191.465
 Cl     6   2   1   2.382491   153.040   186.132

---------------------------
INTERNAL COORDINATES (A.U.)
---------------------------
 C      0   0   0   0.000000     0.000     0.000
 N      1   0   0   2.804273     0.000     0.000
 H      1   2   0   2.064332   109.099     0.000
 H      1   2   3   2.064378   109.061   240.173
 H      1   2   3   2.064274   109.305   120.114
 H      2   1   3   1.980222   114.015    60.210
 H      2   1   3   1.972399   114.711   299.789
 H      2   1   3   1.970116   114.361   179.708
 Pb     6   2   1   5.754283    99.893   180.906
 Cl     7   2   1   3.927358   148.914   174.679
 Cl     8   2   1   3.924151   146.876   191.465
 Cl     6   2   1   4.502256   153.040   186.132

---------------------
BASIS SET INFORMATION
---------------------
There are 5 groups of distinct atoms

 Group   1 Type C   : 11s6p2d1f contracted to 5s3p2d1f pattern {62111/411/11/1}
 Group   2 Type N   : 11s6p2d1f contracted to 5s3p2d1f pattern {62111/411/11/1}
 Group   3 Type H   : 5s1p contracted to 3s1p pattern {311/1}
 Group   4 Type Pb  : 10s9p8d2f contracted to 6s5p3d2f pattern {421111/33111/611/11}
 Group   5 Type Cl  : 14s9p3d1f contracted to 5s5p2d1f pattern {73211/51111/21/1}

Atom   0C    basis set group =>   1
Atom   1N    basis set group =>   2
Atom   2H    basis set group =>   3
Atom   3H    basis set group =>   3
Atom   4H    basis set group =>   3
Atom   5H    basis set group =>   3
Atom   6H    basis set group =>   3
Atom   7H    basis set group =>   3
Atom   8Pb   basis set group =>   4
Atom   9Cl   basis set group =>   5
Atom  10Cl   basis set group =>   5
Atom  11Cl   basis set group =>   5
-------------------------------
AUXILIARY BASIS SET INFORMATION
-------------------------------
There are 5 groups of distinct atoms

 Group   1 Type C   : 12s5p4d2f1g contracted to 6s4p3d1f1g pattern {711111/2111/211/2/1}
 Group   2 Type N   : 12s5p4d2f1g contracted to 6s4p3d1f1g pattern {711111/2111/211/2/1}
 Group   3 Type H   : 5s2p1d contracted to 3s1p1d pattern {311/2/1}
 Group   4 Type Pb  : 31s12p8d6f3g contracted to 31s12p8d6f3g pattern {1111111111111111111111111111111/111111111111/11111111/111111/111}
 Group   5 Type Cl  : 14s5p5d2f1g contracted to 8s4p3d1f1g pattern {71111111/2111/311/2/1}

Atom   0C    basis set group =>   1
Atom   1N    basis set group =>   2
Atom   2H    basis set group =>   3
Atom   3H    basis set group =>   3
Atom   4H    basis set group =>   3
Atom   5H    basis set group =>   3
Atom   6H    basis set group =>   3
Atom   7H    basis set group =>   3
Atom   8Pb   basis set group =>   4
Atom   9Cl   basis set group =>   5
Atom  10Cl   basis set group =>   5
Atom  11Cl   basis set group =>   5

-------------------------
ECP PARAMETER INFORMATION
-------------------------

 Group 1, Type Pb ECP SD(60,MDF) (replacing 60 core electrons, lmax=5)

Atom   8Pb   ECP group =>   1


------------------------------------------------------------------------------
                           ORCA GTO INTEGRAL CALCULATION
                           -- RI-GTO INTEGRALS CHOSEN --
------------------------------------------------------------------------------

                         BASIS SET STATISTICS AND STARTUP INFO

Gaussian basis set:
 # of primitive gaussian shells          ...  186
 # of primitive gaussian functions       ...  420
 # of contracted shells                  ...  101
 # of contracted basis functions         ...  259
 Highest angular momentum                ...    3
 Maximum contraction depth               ...    7
Auxiliary gaussian basis set:
 # of primitive gaussian shells          ...  237
 # of primitive gaussian functions       ...  643
 # of contracted shells                  ...  171
 # of contracted aux-basis functions     ...  493
 Highest angular momentum                ...    4
 Maximum contraction depth               ...    7
Ratio of auxiliary to basis functions    ...  1.90
Integral package used                  ... LIBINT
 One Electron integrals                  
   ECP integrals                         ... done
 Ordering auxiliary basis shells         ... done
 Integral threshhold             Thresh  ...  2.500e-11
 Primitive cut-off               TCut    ...  2.500e-12
 Pre-screening matrix                    ... done
 Shell pair data                         ... 
 Ordering of the shell pairs             ... done (   0.001 sec) 4431 of 5151 pairs
 Determination of significant pairs      ... done (   0.000 sec)
 Creation of shell pair data             ... done (   0.002 sec)
 Storage of shell pair data              ... done (   0.001 sec)
 Shell pair data done in (   0.004 sec)
 Computing two index integrals           ... done
 Cholesky decomposition of the V-matrix  ... done


Timings:
 Total evaluation time                   ...   0.563 sec (  0.009 min)
 One electron matrix time                ...   0.292 sec (  0.005 min) = 52.0%
 Schwartz matrix evaluation time         ...   0.221 sec (  0.004 min) = 39.4%
 Two index repulsion integral time       ...   0.009 sec (  0.000 min) =  1.6%
 Cholesky decomposition of V             ...   0.009 sec (  0.000 min) =  1.6%
 Three index repulsion integral time     ...   0.000 sec (  0.000 min) =  0.0%

-------------------------------------------------------------------------------
                                 ORCA SCF
-------------------------------------------------------------------------------

------------
SCF SETTINGS
------------
Hamiltonian:
 Density Functional     Method          .... DFT(GTOs)
 Exchange Functional    Exchange        .... B88
   X-Alpha parameter    XAlpha          ....  0.666667
   Becke's b parameter  XBeta           ....  0.004200
 Correlation Functional Correlation     .... LYP
 LDA part of GGA corr.  LDAOpt          .... VWN-3
 Gradients option       PostSCFGGA      .... off
 Hybrid DFT is turned on
   Fraction HF Exchange ScalHFX         ....  0.530000
   Scaling of DF-GGA-X  ScalDFX         ....  0.470000
   Scaling of DF-GGA-C  ScalDFC         ....  0.730000
   Scaling of DF-LDA-C  ScalLDAC        ....  0.730000
   Perturbative correction              ....  0.270000
 RI-approximation to the Coulomb term is turned on
   Number of auxiliary basis functions  .... 493
   RIJ-COSX (HFX calculated with COS-X)).... on


General Settings:
 Integral files         IntName         .... PbMACl3_mp2_md2_14.orca
 Hartree-Fock type      HFTyp           .... RHF
 Total Charge           Charge          ....    0
 Multiplicity           Mult            ....    1
 Number of Electrons    NEL             ....   92
 Basis Dimension        Dim             ....  259
 Nuclear Repulsion      ENuc            ....    603.4782351560 Eh

Convergence Acceleration:
 DIIS                   CNVDIIS         .... on
   Start iteration      DIISMaxIt       ....     0
   Startup error        DIISStart       ....  0.200000
   # of expansion vecs  DIISMaxEq       ....     5
   Bias factor          DIISBfac        ....   1.050
   Max. coefficient     DIISMaxC        ....  10.000
 Newton-Raphson         CNVNR           .... off
 SOSCF                  CNVSOSCF        .... on
   Start iteration      SOSCFMaxIt      ....   150
   Startup grad/error   SOSCFStart      ....  0.001000
 Level Shifting         CNVShift        .... on
   Level shift para.    LevelShift      ....    0.2500
   Turn off err/grad.   ShiftErr        ....    0.0000
 Zerner damping         CNVZerner       .... off
 Static damping         CNVDamp         .... on
   Fraction old density DampFac         ....    0.8500
   Max. Damping (<1)    DampMax         ....    0.9800
   Min. Damping (>=0)   DampMin         ....    0.0000
   Turn off err/grad.   DampErr         ....    0.0300
 Fernandez-Rico         CNVRico         .... off

SCF Procedure:
 Maximum # iterations   MaxIter         ....   125
 SCF integral mode      SCFMode         .... Direct
   Integral package                     .... LIBINT
 Reset frequeny         DirectResetFreq ....    20
 Integral Threshold     Thresh          ....  2.500e-11 Eh
 Primitive CutOff       TCut            ....  2.500e-12 Eh

Convergence Tolerance:
 Convergence Check Mode ConvCheckMode   .... Total+1el-Energy
 Energy Change          TolE            ....  1.000e-08 Eh
 1-El. energy change                    ....  1.000e-05 Eh
 Orbital Gradient       TolG            ....  1.000e-05
 Orbital Rotation angle TolX            ....  1.000e-05
 DIIS Error             TolErr          ....  5.000e-07


Diagonalization of the overlap matrix:
Smallest eigenvalue                        ... 1.094e-03
Time for diagonalization                   ...    0.018 sec
Threshold for overlap eigenvalues          ... 1.000e-08
Number of eigenvalues below threshold      ... 0
Time for construction of square roots      ...    0.006 sec
Total time needed                          ...    0.024 sec

---------------------
INITIAL GUESS: MOREAD
---------------------
Guess MOs are being read from file: previous.gbw
Input geometry compatible with but different from current geometry
Input basis set matches current basis set (good)
MOs were renormalized
MOs were reorthogonalized (Schmidt)
                      ------------------
                      INITIAL GUESS DONE (   0.1 sec)
                      ------------------
-------------------
DFT GRID GENERATION
-------------------

General Integration Accuracy     IntAcc      ...  5.010
Radial Grid Type                 RadialGrid  ... Gauss-Chebyshev
Angular Grid (max. acc.)         AngularGrid ... Lebedev-434
Angular grid pruning method      GridPruning ... 3 (G Style)
Weight generation scheme         WeightScheme... Becke
Basis function cutoff            BFCut       ...    1.0000e-11
Integration weight cutoff        WCut        ...    1.0000e-14
Grids for H and He will be reduced by one unit

# of grid points (after initial pruning)     ... 115882 (   0.0 sec)
# of grid points (after weights+screening)   ... 108674 (   0.2 sec)
nearest neighbour list constructed           ...    0.0 sec
Grid point re-assignment to atoms done       ...    0.0 sec
Grid point division into batches done        ...    0.9 sec
Reduced shell lists constructed in    3.4 sec

Total number of grid points                  ...   108674
Total number of batches                      ...     1705
Average number of points per batch           ...       63
Average number of grid points per atom       ...     9056
Average number of shells per batch           ...    55.02 (54.47%)
Average number of basis functions per batch  ...   145.40 (56.14%)
Average number of large shells per batch     ...    41.55 (75.53%)
Average number of large basis fcns per batch ...   106.79 (73.45%)
Maximum spatial batch extension              ...  32.66, 33.20, 34.09 au
Average spatial batch extension              ...   2.40,  2.40,  2.40 au

Time for grid setup =    3.630 sec

--------------------
COSX GRID GENERATION
--------------------

General Integration Accuracy     IntAcc      ...  3.340
Radial Grid Type                 RadialGrid  ... Gauss-Chebyshev
Angular Grid (max. acc.)         AngularGrid ... Lebedev-50
Angular grid pruning method      GridPruning ... 3 (G Style)
Weight generation scheme         WeightScheme... Becke
Basis function cutoff            BFCut       ...    1.0000e-11
Integration weight cutoff        WCut        ...    1.0000e-14
Grids for H and He will be reduced by one unit

# of grid points (after initial pruning)     ...   6578 (   0.0 sec)
# of grid points (after weights+screening)   ...   6168 (   0.0 sec)
nearest neighbour list constructed           ...    0.0 sec
Grid point re-assignment to atoms done       ...    0.0 sec
Grid point division into batches done        ...    0.0 sec
Reduced shell lists constructed in    0.2 sec

Total number of grid points                  ...     6168
Total number of batches                      ...      103
Average number of points per batch           ...       59
Average number of grid points per atom       ...      514
Average number of shells per batch           ...    66.64 (65.98%)
Average number of basis functions per batch  ...   179.05 (69.13%)
Average number of large shells per batch     ...    51.72 (77.61%)
Average number of large basis fcns per batch ...   135.09 (75.45%)
Maximum spatial batch extension              ...  32.21, 26.74, 30.68 au
Average spatial batch extension              ...   6.41,  6.61,  6.49 au

Overlap Fitting                  UseSFitting ... on
Constructing numerical overlap ... done (      0.1 sec)
Inverting numerical overlap    ... done (      0.0 sec)
Obtaining analytic overlap     ... done (      0.0 sec)
Final contraction and storage  ... done (      0.0 sec)


General Integration Accuracy     IntAcc      ...  3.670
Radial Grid Type                 RadialGrid  ... Gauss-Chebyshev
Angular Grid (max. acc.)         AngularGrid ... Lebedev-50
Angular grid pruning method      GridPruning ... 3 (G Style)
Weight generation scheme         WeightScheme... Becke
Basis function cutoff            BFCut       ...    1.0000e-11
Integration weight cutoff        WCut        ...    1.0000e-14
Grids for H and He will be reduced by one unit

# of grid points (after initial pruning)     ...   8124 (   0.0 sec)
# of grid points (after weights+screening)   ...   7603 (   0.0 sec)
nearest neighbour list constructed           ...    0.0 sec
Grid point re-assignment to atoms done       ...    0.0 sec
Grid point division into batches done        ...    0.0 sec
Reduced shell lists constructed in    0.2 sec

Total number of grid points                  ...     7603
Total number of batches                      ...      123
Average number of points per batch           ...       61
Average number of grid points per atom       ...      634
Average number of shells per batch           ...    66.11 (65.46%)
Average number of basis functions per batch  ...   177.42 (68.50%)
Average number of large shells per batch     ...    51.31 (77.62%)
Average number of large basis fcns per batch ...   133.80 (75.41%)
Maximum spatial batch extension              ...  33.65, 27.61, 32.27 au
Average spatial batch extension              ...   5.89,  6.07,  6.11 au

Overlap Fitting                  UseSFitting ... on
Constructing numerical overlap ... done (      0.1 sec)
Inverting numerical overlap    ... done (      0.0 sec)
Obtaining analytic overlap     ... done (      0.0 sec)
Final contraction and storage  ... done (      0.0 sec)


General Integration Accuracy     IntAcc      ...  4.010
Radial Grid Type                 RadialGrid  ... Gauss-Chebyshev
Angular Grid (max. acc.)         AngularGrid ... Lebedev-110
Angular grid pruning method      GridPruning ... 3 (G Style)
Weight generation scheme         WeightScheme... Becke
Basis function cutoff            BFCut       ...    1.0000e-11
Integration weight cutoff        WCut        ...    1.0000e-14
Grids for H and He will be reduced by one unit

# of grid points (after initial pruning)     ...  15170 (   0.0 sec)
# of grid points (after weights+screening)   ...  14352 (   0.0 sec)
nearest neighbour list constructed           ...    0.0 sec
Grid point re-assignment to atoms done       ...    0.0 sec
Grid point division into batches done        ...    0.0 sec
Reduced shell lists constructed in    0.4 sec

Total number of grid points                  ...    14352
Total number of batches                      ...      229
Average number of points per batch           ...       62
Average number of grid points per atom       ...     1196
Average number of shells per batch           ...    62.17 (61.55%)
Average number of basis functions per batch  ...   166.24 (64.19%)
Average number of large shells per batch     ...    47.89 (77.03%)
Average number of large basis fcns per batch ...   124.75 (75.04%)
Maximum spatial batch extension              ...  34.29, 30.83, 34.29 au
Average spatial batch extension              ...   4.96,  5.03,  4.95 au

Overlap Fitting                  UseSFitting ... on
Constructing numerical overlap ... done (      0.2 sec)
Inverting numerical overlap    ... done (      0.0 sec)
Obtaining analytic overlap     ... done (      0.0 sec)
Final contraction and storage  ... done (      0.0 sec)

Time for X-Grid setup             =    1.358 sec
--------------
SCF ITERATIONS
--------------
ITER       Energy         Delta-E        Max-DP      RMS-DP      [F,P]     Damp
               ***  Starting incremental Fock matrix formation  ***
  0  -1669.0260225810   0.000000000000 0.00650241  0.00011182  0.3174041 0.8500
  1  -1669.0278801172  -0.001857536207 0.00786891  0.00012525  0.2700435 0.8500
                               ***Turning on DIIS***
  2  -1669.0295315087  -0.001651391438 0.00787291  0.00011768  0.2296163 0.8500
  3  -1669.0309457715  -0.001414262809 0.00864340  0.00011075  0.1952403 0.8500
  4  -1669.0321675260  -0.001221754545 0.00892060  0.00010495  0.1659932 0.8500
  5  -1669.0332199083  -0.001052382225 0.00832405  0.00009596  0.1411095 0.8500
  6  -1669.0341355573  -0.000915649018 0.00742780  0.00008546  0.1199488 0.8500
  7  -1669.0349342584  -0.000798701084 0.00644801  0.00007483  0.1019588 0.8500
  8  -1669.0356305911  -0.000696332782 0.00564241  0.00006522  0.0866672 0.8500
  9  -1669.0362344338  -0.000603842628 0.00495200  0.00005663  0.0736692 0.8500
 10  -1669.0367566933  -0.000522259543 0.00431415  0.00004896  0.0626206 0.8500
 11  -1669.0372077589  -0.000451065538 0.00372549  0.00004217  0.0532291 0.8500
 12  -1669.0375968142  -0.000389055337 0.00319979  0.00003623  0.0452462 0.8500
 13  -1669.0379318102  -0.000334996020 0.00274747  0.00003110  0.0384604 0.8500
 14  -1669.0382197548  -0.000287944603 0.00236209  0.00002668  0.0326924 0.8500
 15  -1669.0384668948  -0.000247139995 0.01353816  0.00015251  0.0277895 0.0000
                      *** Initiating the SOSCF procedure ***
                           *** Shutting down DIIS ***
                      *** Re-Reading the Fockian *** 
                      *** Removing any level shift *** 
ITER      Energy       Delta-E        Grad      Rot      Max-DP    RMS-DP
 16  -1669.03991161  -0.0014447150  0.000082  0.000082  0.000375  0.000004
               *** Restarting incremental Fock matrix formation ***
 17  -1669.03990879   0.0000028199  0.000046  0.000119  0.000190  0.000003
 18  -1669.03990888  -0.0000000861  0.000013  0.000063  0.000151  0.000002
 19  -1669.03990889  -0.0000000108  0.000011  0.000012  0.000048  0.000001
                  ***Gradient check signals convergence***
              ***Rediagonalizing the Fockian in SOSCF/NRSCF***

               *****************************************************
               *                     SUCCESS                       *
               *           SCF CONVERGED AFTER  20 CYCLES          *
               *****************************************************

Old exchange energy                            =    -59.215483652 Eh
New exchange energy                            =    -59.218510248 Eh
Exchange energy change after final integration =     -0.003026596 Eh
Total energy after final integration           =  -1669.042935491 Eh
Final COS-X integration done in                =    21.133 sec

----------------
TOTAL SCF ENERGY
----------------

Total Energy       :        -1669.04293549 Eh          -45416.96723 eV

Components:
Nuclear Repulsion  :          603.47823516 Eh           16421.47763 eV
Electronic Energy  :        -2272.52117065 Eh          -61838.44486 eV

One Electron Energy:        -3577.55278356 Eh          -97350.16043 eV
Two Electron Energy:         1305.03161291 Eh           35511.71557 eV

Virial components:
Potential Energy   :        -3206.83335803 Eh          -87262.37201 eV
Kinetic Energy     :         1537.79042254 Eh           41845.40478 eV
Virial Ratio       :            2.08535137


DFT components:
N(Alpha)           :       46.000012607435 electrons
N(Beta)            :       46.000012607435 electrons
N(Total)           :       92.000025214870 electrons
E(X)               :      -52.587322840997 Eh       
E(C)               :       -2.609746996583 Eh       
E(XC)              :      -55.197069837579 Eh       

---------------
SCF CONVERGENCE
---------------

  Last Energy change         ...   -8.4865e-09  Tolerance :   1.0000e-08
  Last MAX-Density change    ...    6.1728e-14  Tolerance :   1.0000e-07
  Last RMS-Density change    ...    4.3014e-16  Tolerance :   5.0000e-09
  Last Orbital Gradient      ...    8.8087e-07  Tolerance :   1.0000e-05
  Last Orbital Rotation      ...    2.2784e-06  Tolerance :   1.0000e-05

             **** THE GBW FILE WAS UPDATED (PbMACl3_mp2_md2_14.orca.gbw) ****
             **** DENSITY FILE WAS UPDATED (PbMACl3_mp2_md2_14.orca.scfp.tmp) ****
             **** ENERGY FILE WAS UPDATED (PbMACl3_mp2_md2_14.orca.en.tmp) ****
----------------
ORBITAL ENERGIES
----------------

  NO   OCC          E(Eh)            E(eV) 
   0   2.0000    -102.862680     -2799.0358 
   1   2.0000    -102.859525     -2798.9500 
   2   2.0000    -102.856844     -2798.8770 
   3   2.0000     -14.963793      -407.1855 
   4   2.0000     -10.711586      -291.4771 
   5   2.0000      -9.870866      -268.5999 
   6   2.0000      -9.867591      -268.5108 
   7   2.0000      -9.864296      -268.4211 
   8   2.0000      -7.507878      -204.2998 
   9   2.0000      -7.506293      -204.2566 
  10   2.0000      -7.505785      -204.2428 
  11   2.0000      -7.504585      -204.2101 
  12   2.0000      -7.503020      -204.1675 
  13   2.0000      -7.502535      -204.1543 
  14   2.0000      -7.501426      -204.1242 
  15   2.0000      -7.499631      -204.0753 
  16   2.0000      -7.499294      -204.0662 
  17   2.0000      -5.792012      -157.6087 
  18   2.0000      -3.562904       -96.9516 
  19   2.0000      -3.562754       -96.9475 
  20   2.0000      -3.562307       -96.9353 
  21   2.0000      -1.142692       -31.0942 
  22   2.0000      -0.968822       -26.3630 
  23   2.0000      -0.967372       -26.3235 
  24   2.0000      -0.953116       -25.9356 
  25   2.0000      -0.952096       -25.9078 
  26   2.0000      -0.951753       -25.8985 
  27   2.0000      -0.900691       -24.5091 
  28   2.0000      -0.872326       -23.7372 
  29   2.0000      -0.866397       -23.5758 
  30   2.0000      -0.859654       -23.3924 
  31   2.0000      -0.669992       -18.2314 
  32   2.0000      -0.669204       -18.2100 
  33   2.0000      -0.604248       -16.4424 
  34   2.0000      -0.557519       -15.1709 
  35   2.0000      -0.523195       -14.2369 
  36   2.0000      -0.522589       -14.2204 
  37   2.0000      -0.394851       -10.7445 
  38   2.0000      -0.393206       -10.6997 
  39   2.0000      -0.379058       -10.3147 
  40   2.0000      -0.361598        -9.8396 
  41   2.0000      -0.360812        -9.8182 
  42   2.0000      -0.351674        -9.5695 
  43   2.0000      -0.351067        -9.5530 
  44   2.0000      -0.344532        -9.3752 
  45   2.0000      -0.293355        -7.9826 
  46   0.0000       0.009729         0.2648 
  47   0.0000       0.027083         0.7370 
  48   0.0000       0.032567         0.8862 
  49   0.0000       0.036908         1.0043 
  50   0.0000       0.085921         2.3380 
  51   0.0000       0.108571         2.9544 
  52   0.0000       0.111507         3.0343 
  53   0.0000       0.120966         3.2916 
  54   0.0000       0.136856         3.7240 
  55   0.0000       0.142056         3.8655 
  56   0.0000       0.150480         4.0948 
  57   0.0000       0.154930         4.2159 
  58   0.0000       0.176244         4.7958 
  59   0.0000       0.237376         6.4593 
  60   0.0000       0.248007         6.7486 
  61   0.0000       0.250930         6.8281 
  62   0.0000       0.255903         6.9635 
  63   0.0000       0.262058         7.1310 
  64   0.0000       0.274726         7.4757 
  65   0.0000       0.278554         7.5798 
  66   0.0000       0.282282         7.6813 
  67   0.0000       0.319439         8.6924 
  68   0.0000       0.332756         9.0547 
  69   0.0000       0.348770         9.4905 
  70   0.0000       0.388060        10.5596 
  71   0.0000       0.408759        11.1229 
  72   0.0000       0.410765        11.1775 
  73   0.0000       0.417940        11.3727 
  74   0.0000       0.433344        11.7919 
  75   0.0000       0.435001        11.8370 
  76   0.0000       0.436402        11.8751 
  77   0.0000       0.449020        12.2185 
  78   0.0000       0.455954        12.4071 
  79   0.0000       0.457199        12.4410 
  80   0.0000       0.481835        13.1114 
  81   0.0000       0.485799        13.2193 
  82   0.0000       0.503428        13.6990 
  83   0.0000       0.516639        14.0585 
  84   0.0000       0.527934        14.3658 
  85   0.0000       0.533510        14.5176 
  86   0.0000       0.537436        14.6244 
  87   0.0000       0.560972        15.2648 
  88   0.0000       0.565027        15.3752 
  89   0.0000       0.567776        15.4500 
  90   0.0000       0.573083        15.5944 
  91   0.0000       0.589382        16.0379 
  92   0.0000       0.593857        16.1597 
  93   0.0000       0.608938        16.5700 
  94   0.0000       0.622745        16.9458 
  95   0.0000       0.626179        17.0392 
  96   0.0000       0.645880        17.5753 
  97   0.0000       0.649876        17.6840 
  98   0.0000       0.680151        18.5078 
  99   0.0000       0.708021        19.2662 
 100   0.0000       0.710347        19.3295 
 101   0.0000       0.725147        19.7323 
 102   0.0000       0.747955        20.3529 
 103   0.0000       0.778016        21.1709 
 104   0.0000       0.786363        21.3980 
 105   0.0000       0.844682        22.9850 
 106   0.0000       0.869302        23.6549 
 107   0.0000       0.875229        23.8162 
 108   0.0000       0.892476        24.2855 
 109   0.0000       0.899262        24.4702 
 110   0.0000       0.899974        24.4895 
 111   0.0000       0.917469        24.9656 
 112   0.0000       0.919271        25.0146 
 113   0.0000       0.943451        25.6726 
 114   0.0000       0.958000        26.0685 
 115   0.0000       0.961496        26.1636 
 116   0.0000       1.043729        28.4013 
 117   0.0000       1.067077        29.0366 
 118   0.0000       1.068378        29.0721 
 119   0.0000       1.075227        29.2584 
 120   0.0000       1.095400        29.8073 
 121   0.0000       1.099721        29.9249 
 122   0.0000       1.120199        30.4822 
 123   0.0000       1.212571        32.9957 
 124   0.0000       1.213015        33.0078 
 125   0.0000       1.307605        35.5817 
 126   0.0000       1.316159        35.8145 
 127   0.0000       1.324333        36.0369 
 128   0.0000       1.377752        37.4905 
 129   0.0000       1.383633        37.6506 
 130   0.0000       1.495708        40.7003 
 131   0.0000       1.563012        42.5317 
 132   0.0000       1.590418        43.2775 
 133   0.0000       1.592788        43.3420 
 134   0.0000       1.598639        43.5012 
 135   0.0000       1.614645        43.9367 
 136   0.0000       1.734067        47.1864 
 137   0.0000       1.779855        48.4323 
 138   0.0000       1.786662        48.6176 
 139   0.0000       1.875361        51.0312 
 140   0.0000       1.891542        51.4715 
 141   0.0000       1.893558        51.5263 
 142   0.0000       1.919738        52.2387 
 143   0.0000       1.921663        52.2911 
 144   0.0000       1.934355        52.6365 
 145   0.0000       1.957559        53.2679 
 146   0.0000       1.963913        53.4408 
 147   0.0000       1.971540        53.6483 
 148   0.0000       1.978914        53.8490 
 149   0.0000       2.000996        54.4499 
 150   0.0000       2.006361        54.5959 
 151   0.0000       2.022822        55.0438 
 152   0.0000       2.034237        55.3544 
 153   0.0000       2.035831        55.3978 
 154   0.0000       2.078574        56.5609 
 155   0.0000       2.081793        56.6485 
 156   0.0000       2.100225        57.1500 
 157   0.0000       2.119134        57.6646 
 158   0.0000       2.122313        57.7511 
 159   0.0000       2.126403        57.8624 
 160   0.0000       2.148087        58.4524 
 161   0.0000       2.163531        58.8727 
 162   0.0000       2.165406        58.9237 
 163   0.0000       2.175377        59.1950 
 164   0.0000       2.186287        59.4919 
 165   0.0000       2.190556        59.6081 
 166   0.0000       2.211488        60.1776 
 167   0.0000       2.222537        60.4783 
 168   0.0000       2.230293        60.6894 
 169   0.0000       2.233533        60.7775 
 170   0.0000       2.240819        60.9758 
 171   0.0000       2.246017        61.1172 
 172   0.0000       2.250035        61.2266 
 173   0.0000       2.256321        61.3976 
 174   0.0000       2.260131        61.5013 
 175   0.0000       2.261888        61.5491 
 176   0.0000       2.283652        62.1413 
 177   0.0000       2.294692        62.4417 
 178   0.0000       2.296474        62.4902 
 179   0.0000       2.332020        63.4575 
 180   0.0000       2.369776        64.4849 
 181   0.0000       2.375158        64.6313 
 182   0.0000       2.378427        64.7203 
 183   0.0000       2.380798        64.7848 
 184   0.0000       2.385677        64.9176 
 185   0.0000       2.414935        65.7137 
 186   0.0000       2.416826        65.7652 
 187   0.0000       2.422486        65.9192 
 188   0.0000       2.439420        66.3800 
 189   0.0000       2.444300        66.5128 
 190   0.0000       2.459257        66.9198 
 191   0.0000       2.471567        67.2548 
 192   0.0000       2.478066        67.4316 
 193   0.0000       2.481825        67.5339 
 194   0.0000       2.513903        68.4068 
 195   0.0000       2.550713        69.4084 
 196   0.0000       2.560953        69.6871 
 197   0.0000       2.571995        69.9875 
 198   0.0000       2.590430        70.4892 
 199   0.0000       2.595411        70.6247 
 200   0.0000       2.608520        70.9814 
 201   0.0000       2.620380        71.3042 
 202   0.0000       2.626944        71.4828 
 203   0.0000       2.730960        74.3132 
 204   0.0000       2.763598        75.2013 
 205   0.0000       2.794754        76.0491 
 206   0.0000       2.806241        76.3617 
 207   0.0000       2.816909        76.6520 
 208   0.0000       2.886869        78.5557 
 209   0.0000       2.916628        79.3655 
 210   0.0000       2.920148        79.4613 
 211   0.0000       3.021358        82.2153 
 212   0.0000       3.132591        85.2421 
 213   0.0000       3.135878        85.3316 
 214   0.0000       3.223504        87.7160 
 215   0.0000       3.237321        88.0920 
 216   0.0000       3.301559        89.8400 
 217   0.0000       3.381907        92.0264 
 218   0.0000       3.393916        92.3531 
 219   0.0000       3.554843        96.7322 
 220   0.0000       3.581523        97.4582 
 221   0.0000       3.586364        97.5899 
 222   0.0000       3.774436       102.7076 
 223   0.0000       3.780581       102.8748 
 224   0.0000       3.924751       106.7979 
 225   0.0000       4.196440       114.1909 
 226   0.0000       4.201062       114.3167 
 227   0.0000       4.406456       119.9058 
 228   0.0000       4.446630       120.9990 
 229   0.0000       4.846769       131.8873 
 230   0.0000       4.848413       131.9320 
 231   0.0000       4.952619       134.7676 
 232   0.0000       4.967004       135.1590 
 233   0.0000       5.089892       138.5030 
 234   0.0000       5.113118       139.1350 
 235   0.0000       5.121192       139.3547 
 236   0.0000       5.312800       144.5686 
 237   0.0000       5.518253       150.1593 
 238   0.0000       5.527074       150.3993 
 239   0.0000       5.854438       159.3074 
 240   0.0000      11.043462       300.5079 
 241   0.0000      11.045687       300.5684 
 242   0.0000      11.059540       300.9454 
 243   0.0000      11.091259       301.8085 
 244   0.0000      11.118525       302.5504 
 245   0.0000      11.128462       302.8208 
 246   0.0000      11.167130       303.8730 
 247   0.0000      11.200654       304.7853 
 248   0.0000      11.208181       304.9901 
 249   0.0000      22.660744       616.6302 
 250   0.0000      25.278324       687.8582 
 251   0.0000      25.310541       688.7348 
 252   0.0000      25.517818       694.3751 
 253   0.0000      32.389507       881.3633 
 254   0.0000      35.554254       967.4804 
 255   0.0000      35.807213       974.3638 
 256   0.0000      35.821447       974.7511 
 257   0.0000      35.916046       977.3253 
 258   0.0000     123.627368      3364.0717 

                    ********************************
                    * MULLIKEN POPULATION ANALYSIS *
                    ********************************

-----------------------
MULLIKEN ATOMIC CHARGES
-----------------------
   0 C :   -0.254312
   1 N :   -0.318031
   2 H :    0.159052
   3 H :    0.159590
   4 H :    0.158629
   5 H :    0.286620
   6 H :    0.294169
   7 H :    0.293203
   8 Pb:    0.820326
   9 Cl:   -0.532462
  10 Cl:   -0.539788
  11 Cl:   -0.526995
Sum of atomic charges:   -0.0000000

--------------------------------
MULLIKEN REDUCED ORBITAL CHARGES
--------------------------------
  0 C s       :     3.276320  s :     3.276320
      pz      :     0.976881  p :     2.903092
      px      :     0.991220
      py      :     0.934990
      dz2     :     0.006679  d :     0.068871
      dxz     :     0.018410
      dyz     :     0.018108
      dx2y2   :     0.007621
      dxy     :     0.018053
      f0      :     0.000345  f :     0.006029
      f+1     :     0.000489
      f-1     :     0.000708
      f+2     :     0.000746
      f-2     :     0.002635
      f+3     :     0.000506
      f-3     :     0.000601
  1 N s       :     3.422261  s :     3.422261
      pz      :     1.282667  p :     3.846458
      px      :     1.289435
      py      :     1.274357
      dz2     :     0.005083  d :     0.047143
      dxz     :     0.012700
      dyz     :     0.011809
      dx2y2   :     0.005696
      dxy     :     0.011855
      f0      :     0.000118  f :     0.002169
      f+1     :     0.000162
      f-1     :     0.000201
      f+2     :     0.000211
      f-2     :     0.001145
      f+3     :     0.000159
      f-3     :     0.000174
  2 H s       :     0.819188  s :     0.819188
      pz      :     0.008317  p :     0.021760
      px      :     0.007777
      py      :     0.005666
  3 H s       :     0.818662  s :     0.818662
      pz      :     0.006939  p :     0.021749
      px      :     0.007336
      py      :     0.007474
  4 H s       :     0.819632  s :     0.819632
      pz      :     0.006739  p :     0.021740
      px      :     0.007418
      py      :     0.007582
  5 H s       :     0.676495  s :     0.676495
      pz      :     0.009472  p :     0.036885
      px      :     0.013220
      py      :     0.014193
  6 H s       :     0.662332  s :     0.662332
      pz      :     0.015246  p :     0.043500
      px      :     0.010459
      py      :     0.017794
  7 H s       :     0.663046  s :     0.663046
      pz      :     0.017834  p :     0.043750
      px      :     0.017916
      py      :     0.008001
  8 Pbs       :     3.903893  s :     3.903893
      pz      :     2.365808  p :     7.066885
      px      :     2.339560
      py      :     2.361516
      dz2     :     2.027548  d :    10.141195
      dxz     :     2.030414
      dyz     :     2.029530
      dx2y2   :     2.027311
      dxy     :     2.026393
      f0      :     0.014962  f :     0.067701
      f+1     :     0.010803
      f-1     :     0.010390
      f+2     :     0.006884
      f-2     :     0.001001
      f+3     :     0.011756
      f-3     :     0.011905
  9 Cls       :     5.953191  s :     5.953191
      pz      :     3.924119  p :    11.557839
      px      :     3.721533
      py      :     3.912187
      dz2     :     0.003080  d :     0.020514
      dxz     :     0.003225
      dyz     :     0.002210
      dx2y2   :     0.008865
      dxy     :     0.003134
      f0      :     0.000088  f :     0.000919
      f+1     :     0.000188
      f-1     :     0.000045
      f+2     :     0.000147
      f-2     :     0.000021
      f+3     :     0.000296
      f-3     :     0.000132
 10 Cls       :     5.953813  s :     5.953813
      pz      :     3.925000  p :    11.565484
      px      :     3.912113
      py      :     3.728371
      dz2     :     0.002999  d :     0.019633
      dxz     :     0.002638
      dyz     :     0.002919
      dx2y2   :     0.007961
      dxy     :     0.003117
      f0      :     0.000085  f :     0.000857
      f+1     :     0.000057
      f-1     :     0.000158
      f+2     :     0.000139
      f-2     :     0.000034
      f+3     :     0.000151
      f-3     :     0.000232
 11 Cls       :     5.953550  s :     5.953550
      pz      :     3.721764  p :    11.553511
      px      :     3.920235
      py      :     3.911511
      dz2     :     0.010868  d :     0.019045
      dxz     :     0.003369
      dyz     :     0.003256
      dx2y2   :     0.000415
      dxy     :     0.001136
      f0      :     0.000467  f :     0.000890
      f+1     :     0.000190
      f-1     :     0.000163
      f+2     :     0.000017
      f-2     :     0.000024
      f+3     :     0.000020
      f-3     :     0.000010


                     *******************************
                     * LOEWDIN POPULATION ANALYSIS *
                     *******************************

----------------------
LOEWDIN ATOMIC CHARGES
----------------------
   0 C :   -0.274447
   1 N :    0.080625
   2 H :    0.125316
   3 H :    0.125494
   4 H :    0.125375
   5 H :    0.181886
   6 H :    0.156207
   7 H :    0.155742
   8 Pb:   -0.096381
   9 Cl:   -0.181242
  10 Cl:   -0.197820
  11 Cl:   -0.200755

-------------------------------
LOEWDIN REDUCED ORBITAL CHARGES
-------------------------------
  0 C s       :     2.853712  s :     2.853712
      pz      :     1.033008  p :     3.081574
      px      :     1.042416
      py      :     1.006150
      dz2     :     0.028364  d :     0.302227
      dxz     :     0.079277
      dyz     :     0.081874
      dx2y2   :     0.032391
      dxy     :     0.080322
      f0      :     0.005248  f :     0.036933
      f+1     :     0.003909
      f-1     :     0.005691
      f+2     :     0.004373
      f-2     :     0.006998
      f+3     :     0.004909
      f-3     :     0.005805
  1 N s       :     3.000872  s :     3.000872
      pz      :     1.250696  p :     3.752069
      px      :     1.253338
      py      :     1.248035
      dz2     :     0.016878  d :     0.157060
      dxz     :     0.041369
      dyz     :     0.040045
      dx2y2   :     0.018625
      dxy     :     0.040143
      f0      :     0.001448  f :     0.009374
      f+1     :     0.001104
      f-1     :     0.001408
      f+2     :     0.001018
      f-2     :     0.001656
      f+3     :     0.001228
      f-3     :     0.001512
  2 H s       :     0.812420  s :     0.812420
      pz      :     0.022897  p :     0.062264
      px      :     0.021675
      py      :     0.017692
  3 H s       :     0.812238  s :     0.812238
      pz      :     0.019445  p :     0.062268
      px      :     0.022281
      py      :     0.020542
  4 H s       :     0.812418  s :     0.812418
      pz      :     0.020709  p :     0.062207
      px      :     0.020740
      py      :     0.020759
  5 H s       :     0.708011  s :     0.708011
      pz      :     0.031497  p :     0.110103
      px      :     0.038239
      py      :     0.040367
  6 H s       :     0.712062  s :     0.712062
      pz      :     0.044634  p :     0.131731
      px      :     0.035065
      py      :     0.052032
  7 H s       :     0.712197  s :     0.712197
      pz      :     0.052720  p :     0.132061
      px      :     0.052721
      py      :     0.026621
  8 Pbs       :     3.703468  s :     3.703468
      pz      :     2.533386  p :     7.558948
      px      :     2.505090
      py      :     2.520473
      dz2     :     2.171863  d :    10.627629
      dxz     :     2.100435
      dyz     :     2.096146
      dx2y2   :     2.168290
      dxy     :     2.090895
      f0      :     0.049618  f :     0.206336
      f+1     :     0.032550
      f-1     :     0.029359
      f+2     :     0.017921
      f-2     :     0.002943
      f+3     :     0.039403
      f-3     :     0.034542
  9 Cls       :     5.734742  s :     5.734742
      pz      :     3.862891  p :    11.406033
      px      :     3.695549
      py      :     3.847592
      dz2     :     0.006830  d :     0.038282
      dxz     :     0.003207
      dyz     :     0.003830
      dx2y2   :     0.020914
      dxy     :     0.003502
      f0      :     0.000110  f :     0.002185
      f+1     :     0.000559
      f-1     :     0.000085
      f+2     :     0.000276
      f-2     :     0.000025
      f+3     :     0.000910
      f-3     :     0.000220
 10 Cls       :     5.742678  s :     5.742678
      pz      :     3.863675  p :    11.417054
      px      :     3.850362
      py      :     3.703016
      dz2     :     0.006397  d :     0.036086
      dxz     :     0.004115
      dyz     :     0.003194
      dx2y2   :     0.018717
      dxy     :     0.003662
      f0      :     0.000110  f :     0.002001
      f+1     :     0.000107
      f-1     :     0.000471
      f+2     :     0.000268
      f-2     :     0.000052
      f+3     :     0.000263
      f-3     :     0.000730
 11 Cls       :     5.743716  s :     5.743716
      pz      :     3.695011  p :    11.420559
      px      :     3.866496
      py      :     3.859051
      dz2     :     0.026189  d :     0.034488
      dxz     :     0.003317
      dyz     :     0.003099
      dx2y2   :     0.000396
      dxy     :     0.001486
      f0      :     0.001444  f :     0.001993
      f+1     :     0.000254
      f-1     :     0.000203
      f+2     :     0.000015
      f-2     :     0.000025
      f+3     :     0.000037
      f-3     :     0.000015


                      *****************************
                      * MAYER POPULATION ANALYSIS *
                      *****************************

  NA   - Mulliken gross atomic population
  ZA   - Total nuclear charge
  QA   - Mulliken gross atomic charge
  VA   - Mayer's total valence
  BVA  - Mayer's bonded valence
  FA   - Mayer's free valence

  ATOM       NA         ZA         QA         VA         BVA        FA
  0 C      6.2543     6.0000    -0.2543     3.8358     3.8358    -0.0000
  1 N      7.3180     7.0000    -0.3180     3.3328     3.3328    -0.0000
  2 H      0.8409     1.0000     0.1591     0.9620     0.9620    -0.0000
  3 H      0.8404     1.0000     0.1596     0.9616     0.9616     0.0000
  4 H      0.8414     1.0000     0.1586     0.9618     0.9618     0.0000
  5 H      0.7134     1.0000     0.2866     0.9667     0.9667     0.0000
  6 H      0.7058     1.0000     0.2942     0.9692     0.9692     0.0000
  7 H      0.7068     1.0000     0.2932     0.9708     0.9708    -0.0000
  8 Pb    21.1797    22.0000     0.8203     1.9600     1.9600    -0.0000
  9 Cl    17.5325    17.0000    -0.5325     0.8004     0.8004     0.0000
 10 Cl    17.5398    17.0000    -0.5398     0.7888     0.7888    -0.0000
 11 Cl    17.5270    17.0000    -0.5270     0.8097     0.8097     0.0000

  Mayer bond orders larger than 0.1
B(  0-C ,  1-N ) :   0.9038 B(  0-C ,  2-H ) :   0.9704 B(  0-C ,  3-H ) :   0.9698 
B(  0-C ,  4-H ) :   0.9696 B(  1-N ,  5-H ) :   0.8435 B(  1-N ,  6-H ) :   0.8125 
B(  1-N ,  7-H ) :   0.8138 B(  5-H , 11-Cl) :   0.1258 B(  6-H ,  9-Cl) :   0.1574 
B(  7-H , 10-Cl) :   0.1568 B(  8-Pb,  9-Cl) :   0.6364 B(  8-Pb, 10-Cl) :   0.6234 
B(  8-Pb, 11-Cl) :   0.6879 

-------
TIMINGS
-------

Total SCF time: 0 days 0 hours 4 min 30 sec 

Total time                  ....     270.565 sec
Sum of individual times     ....     248.440 sec  ( 91.8%)

Fock matrix formation       ....     242.515 sec  ( 89.6%)
  Coulomb formation         ....     187.144 sec  ( 77.2% of F)
  Split-RI-J                ....      16.651 sec  (  6.9% of F)
  Chain of spheres X        ....     191.450 sec  ( 78.9% of F)
  XC integration            ....      54.728 sec  ( 22.6% of F)
    Basis function eval.    ....      26.821 sec  ( 49.0% of XC)
    Density eval.           ....      11.756 sec  ( 21.5% of XC)
    XC-Functional eval.     ....       3.000 sec  (  5.5% of XC)
    XC-Potential eval.      ....      12.112 sec  ( 22.1% of XC)
Diagonalization             ....       0.528 sec  (  0.2%)
Density matrix formation    ....       0.035 sec  (  0.0%)
Population analysis         ....       0.071 sec  (  0.0%)
Initial guess               ....       0.113 sec  (  0.0%)
Orbital Transformation      ....       0.000 sec  (  0.0%)
Orbital Orthonormalization  ....       0.110 sec  (  0.0%)
DIIS solution               ....       0.131 sec  (  0.0%)
SOSCF solution              ....       0.059 sec  (  0.0%)
Grid generation             ....       4.988 sec  (  1.8%)

------------------------------------------------------------------------------
                              ORCA MP2 CALCULATION
------------------------------------------------------------------------------


----------------------
RI-MP2 ENERGY+GRADIENT
----------------------
Dimension of the basis                    ...  259
Memory devoted to MP2                     ... 1000 MB   
Data format for buffers                   ... DOUBLE
Compression type for matrix containers    ... UNCOMPRESSED
Overall scaling of the MP2 energy         ...   2.700e-01 Eh
Calculating two index integrals           ... done (    0.012 sec)
Cholesky decomposition of the V-matrix    ... done
Cholesky decomposition of V**-1           ... done (    0.029 sec)

-----------------
RI-TRANSFORMATION (AUX index driven)
-----------------

Dimension of the orbital-basis         ... 259
Dimension of the aux-basis             ... 493
Transformation of internal MOs         ...    0-  45
Transformation of internal/external MOs...    0-  45 to   46- 258
Number Format for Storage              ... Double (8 Byte)
Integral mode                          ... Direct

First Phase: integral generation and transformation of MO indices
  Aux angular momentum 0               ... done (    0.552 sec)
  Aux angular momentum 1               ... done (    0.432 sec)
  Aux angular momentum 2               ... done (    0.470 sec)
  Aux angular momentum 3               ... done (    0.242 sec)
  Aux angular momentum 4               ... done (    0.204 sec)
Closing buffer VIJ ( 0.00 GB; CompressionRatio= 1.95)
Closing buffer VIA ( 0.04 GB; CompressionRatio= 1.00)
  Phase 1 completed in     2.002 sec
Second Phase: sorting and transformation of aux index

IJ-Transformation
Memory available                       ... 990 MB 
Max. # MO pairs treated in a batch     ... 46    
# of internal orbitals                 ... 46
# batches for internal orbitals        ... 1
Closing buffer IJV ( 0.00 GB; CompressionRatio= 1.00)
(ij|v) transformation done in     0.103 sec

IA-Transformation
Memory available                       ... 990 MB 
Max. # MO pairs treated in a batch     ... 46    
# of internal orbitals                 ... 46
# batches for internal orbitals        ... 1
Closing buffer IAV ( 0.04 GB; CompressionRatio= 1.00)
(ia|v) transformation done in     0.375 sec

  Phase 2 completed in     0.499 sec
RI-Integral transformation completed in     2.502 sec
Opening buffers                              ... done

Starting loop over batches of integrals:

Operator 0  - window                       ... (  0- 45)x( 46-258)
Operator 0  - Memory available             ...  1000 MB
Operator 0  - Memory needed per MO         ...   1.6 MB
Operator 0  - Number of orbitals per batch ... 46
Operator 0  - Number of batches            ... 1

OPERATOR  0   PASS   0:  MOs     0 ...   45
  Reading integrals       ... ok
  Internal MO   2
  Internal MO   5
  Internal MO   8
  Internal MO  11
  Internal MO  14
  Internal MO  17
  Internal MO  20
  Internal MO  23
  Internal MO  26
  Internal MO  29
  Internal MO  32
  Internal MO  35
  Internal MO  38
  Internal MO  41
  Internal MO  44
Closing buffer GIPV ( 0.04 GB; CompressionRatio= 1.00)
Time spent in pair loops =    47.001 sec

-----------------------------------------------
 RI-MP2 CORRELATION ENERGY:     -0.578847638 Eh
-----------------------------------------------


---------------------
MP2 DENSITY FORMATION
---------------------

Completing the external part of the density      ... done
Storing the unrelaxed density                    ... done

Calculating the xc-kernel                        ... done
Calculating G(D)                                 ... done
Completing the Lagrangian                        ... done
Solving the Z-vector equations                   ... 

------------------------------------------------------------------------------
                           ORCA CP-SCF CALCULATION
------------------------------------------------------------------------------

Input orbitals are from        ... PbMACl3_mp2_md2_14.orca.gbw
Input Perturbation             ... PbMACl3_mp2_md2_14.orca.pin.tmp
Wavefunction output            ... PbMACl3_mp2_md2_14.orca.pout.tmp
Perturbation mode              ... Real perturbation
Solver                         ... DIIS
   MaxDIIS                     ... 20
   Levelshift                  ...    3.000e-01 Eh
Max. number of iterations      ... 128
Convergence tolerance          ... 1.000e-08
Integral handling              ... Direct
COSX GridX                     ... 1
Number of perturbations        ... 1
Number of operators            ... 1
Orbital ranges used for CP-SCF:
 Operator 0:  Orbitals   0... 45  to  46...258
DFT calculation                         ... on
Exchange functional (SCF)               ... B88
Exchange functional (CP-SCF)            ... B88
   X-Alpha parameter    XAlpha (SCF)    ...  0.666667
   X-Alpha parameter    XAlpha (CP-SCF) ...  0.666667
   Becke's b parameter  XBeta (SCF)     ...  0.004200
   Becke's b parameter  XBeta (CP-SCF)  ...  0.004200
Correlation functional (SCF)            ... LYP
Correlation functional (CP-SCF)         ... LYP
 LDA part of GGA corr.  LDAOpt (SCF)    ... VWN-3
 LDA part of GGA corr.  LDAOpt (CP-SCF) ... VWN-3
Hybrid DFT                              ... on
   Exchange mixing (SCF)                ...  0.530
   Exchange mixing (CP-SCF)             ...  0.530
   GGA exch. scaling(SCF)               ...  0.470
   GGA exch. scaling (CP-SCF)           ...  0.470
   GGA corr. scaling (SCF)              ...  0.730
   GGA corr. scaling (CP-SCF)           ...  0.730
The RIJCOSX approximation is active
Variables per vector in CP-SCF ... 9798
Number of vectors sought       ... 1
Calculating the xc-kernel      ... done

Solving the CP-SCF equations by a DIIS algorithm

-----------------
CP-SCF ITERATIONS
-----------------
  Iteration   0: MaxR=  0.084742905
  Iteration   1: MaxR=  0.038639864
  Iteration   2: MaxR=  0.011345656
  Iteration   3: MaxR=  0.004435259
  Iteration   4: MaxR=  0.001832650
  Iteration   5: MaxR=  0.000662708
  Iteration   6: MaxR=  0.000262569
  Iteration   7: MaxR=  0.000079253
  Iteration   8: MaxR=  0.000029102
  Iteration   9: MaxR=  0.000007862
  Iteration  10: MaxR=  0.000002778
  Iteration  11: MaxR=  0.000000985
  Iteration  12: MaxR=  0.000000398
  Iteration  13: MaxR=  0.000000118
  Iteration  14: MaxR=  0.000000037
  Iteration  15: MaxR=  0.000000013
  Iteration  16: MaxR=  0.000000004
                              *** THE CP-SCF HAS CONVERGED *** 
done
Finalizing the relaxed density                   ... done
Transforming P to the AO basis                   ... done
Storing the relaxed density                      ... done

------------------------------------
ENERGY WEIGHTED DENSITY FINALIZATION
------------------------------------

Gathering the parts of the W-matrix              ... done
Forming the Z-density                            ... done
Transforming Z to the AO basis                   ... done
Calculating G(Z)                                 ... done
Finalizing the W-matrix                          ... done
Transforming W to the AO basis and storing       ... done
Entering the RIJONX and RIJCOSX sections
Starting the three-index derivative integrals:
Operator 0  - Memory available             ...  1000 MB
Operator 0  - Memory needed per MO         ...   1.0 MB
Operator 0  - Number of orbitals per batch ... 46
Operator 0  - Number of batches            ... 1

OPERATOR  0   PASS   0:  MOs     0 ...   45

----------------------------------
MP2 DERIVATIVE INTEGRAL GENERATION
----------------------------------


Input Correlated Electron Density   ... PbMACl3_mp2_md2_14.orca.pmp2re
Input Energy Weighted Density       ... PbMACl3_mp2_md2_14.orca.wmp2.tmp
Input SCF Electron Density          ... PbMACl3_mp2_md2_14.orca.scfp.tmp

One-Electron Terms    ...
  ECP gradient                                           ... One-Electron Terms done

-----------------------------------------------------------
MP2 COSX Grid Generation
-----------------------------------------------------------

General Integration Accuracy     IntAcc      ...  4.340
Radial Grid Type                 RadialGrid  ... Gauss-Chebyshev
Angular Grid (max. acc.)         AngularGrid ... Lebedev-302
Angular grid pruning method      GridPruning ... 3 (G Style)
Weight generation scheme         WeightScheme... Becke
Basis function cutoff            BFCut       ...    1.0000e-11
Integration weight cutoff        WCut        ...    1.0000e-14
Grids for H and He will be reduced by one unit

# of grid points (after initial pruning)     ...  57718 (   0.0 sec)
# of grid points (after weights+screening)   ...  54359 (   0.1 sec)
nearest neighbour list constructed           ...    0.0 sec
Grid point re-assignment to atoms done       ...    0.0 sec
Grid point division into batches done        ...    0.2 sec
Reduced shell lists constructed in    1.4 sec

Total number of grid points                  ...    54359
Total number of batches                      ...      855
Average number of points per batch           ...       63
Average number of grid points per atom       ...     4530
Average number of shells per batch           ...    56.64 (56.08%)
Average number of basis functions per batch  ...   150.51 (58.11%)
Average number of large shells per batch     ...    42.88 (75.70%)
Average number of large basis fcns per batch ...   110.88 (73.67%)
Maximum spatial batch extension              ...  35.78, 35.78, 32.85 au
Average spatial batch extension              ...   3.07,  3.04,  3.05 au

Overlap Fitting                  UseSFitting ... on
Two electron COSX terms .... 
Integration Timings:
Total Time                  =    85.6 sec
Basis fcn evaluation        =     0.7 sec
Density evaluation          =     1.0 sec
Integral evaluation         =    82.2 sec
K(P) evaluation             =     0.7 sec
                          .... COSX two electron terms done
COSX two-electron contribution to the gradient
     0:    -0.018648    -0.022637    -0.023003
     1:     0.057572     0.065634     0.054697
     2:     0.100363    -0.082315     0.107580
     3:    -0.104469     0.097612     0.089236
     4:     0.095799     0.099353    -0.096887
     5:    -0.112543    -0.115523     0.097637
     6:     0.100902    -0.109905    -0.101803
     7:    -0.111205     0.078030    -0.120120
     8:    -0.038853    -0.049239    -0.050581
     9:     0.067184    -0.008212    -0.013180
    10:    -0.019225     0.062564    -0.016402
    11:    -0.017025    -0.015084     0.072350
Exchange-correlation gradient    ... done
Dispersion correction            ... 
Entering the calculation of the dispersion correction...

Checking the input atom types...

Done
done

                *********************************************
                * UNRELAXED MP2 DENSITY POPULATION ANALYSIS *
                *********************************************

------------------------------------------------------------------------------
                           ORCA POPULATION ANALYSIS
------------------------------------------------------------------------------
Input electron density              ... PbMACl3_mp2_md2_14.orca.pmp2ur
BaseName (.gbw .S,...)              ... PbMACl3_mp2_md2_14.orca

                    ********************************
                    * MULLIKEN POPULATION ANALYSIS *
                    ********************************

-----------------------
MULLIKEN ATOMIC CHARGES
-----------------------
   0 C :   -0.258801
   1 N :   -0.316992
   2 H :    0.160077
   3 H :    0.160612
   4 H :    0.159669
   5 H :    0.285567
   6 H :    0.293055
   7 H :    0.292100
   8 Pb:    0.805773
   9 Cl:   -0.526491
  10 Cl:   -0.533787
  11 Cl:   -0.520782
Sum of atomic charges:   -0.0000000

--------------------------------
MULLIKEN REDUCED ORBITAL CHARGES
--------------------------------
  0 C s       :     3.275115  s :     3.275115
      pz      :     0.975493  p :     2.899095
      px      :     0.989705
      py      :     0.933897
      dz2     :     0.008703  d :     0.077421
      dxz     :     0.019973
      dyz     :     0.019576
      dx2y2   :     0.009620
      dxy     :     0.019550
      f0      :     0.000502  f :     0.007169
      f+1     :     0.000664
      f-1     :     0.000879
      f+2     :     0.000927
      f-2     :     0.002759
      f+3     :     0.000671
      f-3     :     0.000767
  1 N s       :     3.419952  s :     3.419952
      pz      :     1.279146  p :     3.835803
      px      :     1.285879
      py      :     1.270778
      dz2     :     0.007367  d :     0.058031
      dxz     :     0.014800
      dyz     :     0.013915
      dx2y2   :     0.007994
      dxy     :     0.013955
      f0      :     0.000261  f :     0.003207
      f+1     :     0.000313
      f-1     :     0.000353
      f+2     :     0.000366
      f-2     :     0.001284
      f+3     :     0.000307
      f-3     :     0.000323
  2 H s       :     0.817156  s :     0.817156
      pz      :     0.008640  p :     0.022767
      px      :     0.008104
      py      :     0.006023
  3 H s       :     0.816632  s :     0.816632
      pz      :     0.007274  p :     0.022756
      px      :     0.007676
      py      :     0.007805
  4 H s       :     0.817586  s :     0.817586
      pz      :     0.007085  p :     0.022745
      px      :     0.007748
      py      :     0.007912
  5 H s       :     0.676956  s :     0.676956
      pz      :     0.009679  p :     0.037477
      px      :     0.013411
      py      :     0.014388
  6 H s       :     0.662844  s :     0.662844
      pz      :     0.015452  p :     0.044100
      px      :     0.010657
      py      :     0.017992
  7 H s       :     0.663553  s :     0.663553
      pz      :     0.018004  p :     0.044348
      px      :     0.018107
      py      :     0.008237
  8 Pbs       :     3.886038  s :     3.886038
      pz      :     2.373670  p :     7.090906
      px      :     2.347821
      py      :     2.369415
      dz2     :     2.022078  d :    10.113695
      dxz     :     2.024914
      dyz     :     2.024043
      dx2y2   :     2.021809
      dxy     :     2.020851
      f0      :     0.019991  f :     0.103588
      f+1     :     0.015939
      f-1     :     0.015556
      f+2     :     0.012098
      f-2     :     0.006135
      f+3     :     0.016824
      f-3     :     0.017045
  9 Cls       :     5.948670  s :     5.948670
      pz      :     3.909549  p :    11.514394
      px      :     3.707313
      py      :     3.897532
      dz2     :     0.010876  d :     0.059753
      dxz     :     0.011111
      dyz     :     0.010073
      dx2y2   :     0.016638
      dxy     :     0.011055
      f0      :     0.000475  f :     0.003673
      f+1     :     0.000579
      f-1     :     0.000427
      f+2     :     0.000549
      f-2     :     0.000412
      f+3     :     0.000692
      f-3     :     0.000540
 10 Cls       :     5.949294  s :     5.949294
      pz      :     3.910426  p :    11.522009
      px      :     3.897475
      py      :     3.714107
      dz2     :     0.010809  d :     0.058878
      dxz     :     0.010494
      dyz     :     0.010806
      dx2y2   :     0.015757
      dxy     :     0.011012
      f0      :     0.000471  f :     0.003606
      f+1     :     0.000441
      f-1     :     0.000549
      f+2     :     0.000539
      f-2     :     0.000425
      f+3     :     0.000553
      f-3     :     0.000629
 11 Cls       :     5.948977  s :     5.948977
      pz      :     3.707528  p :    11.510272
      px      :     3.905765
      py      :     3.896979
      dz2     :     0.018556  d :     0.057924
      dxz     :     0.011198
      dyz     :     0.011102
      dx2y2   :     0.008163
      dxy     :     0.008906
      f0      :     0.000864  f :     0.003609
      f+1     :     0.000593
      f-1     :     0.000567
      f+2     :     0.000401
      f-2     :     0.000410
      f+3     :     0.000392
      f-3     :     0.000381


                     *******************************
                     * LOEWDIN POPULATION ANALYSIS *
                     *******************************

----------------------
LOEWDIN ATOMIC CHARGES
----------------------
   0 C :   -0.277436
   1 N :    0.079788
   2 H :    0.126054
   3 H :    0.126232
   4 H :    0.126122
   5 H :    0.181315
   6 H :    0.155681
   7 H :    0.155217
   8 Pb:   -0.106005
   9 Cl:   -0.177116
  10 Cl:   -0.193587
  11 Cl:   -0.196264

-------------------------------
LOEWDIN REDUCED ORBITAL CHARGES
-------------------------------
  0 C s       :     2.853099  s :     2.853099
      pz      :     1.030628  p :     3.074530
      px      :     1.039967
      py      :     1.003935
      dz2     :     0.030157  d :     0.311114
      dxz     :     0.081078
      dyz     :     0.083637
      dx2y2   :     0.034151
      dxy     :     0.082091
      f0      :     0.005475  f :     0.038694
      f+1     :     0.004124
      f-1     :     0.005901
      f+2     :     0.004586
      f-2     :     0.007457
      f+3     :     0.005137
      f-3     :     0.006015
  1 N s       :     3.000356  s :     3.000356
      pz      :     1.246901  p :     3.740639
      px      :     1.249572
      py      :     1.244165
      dz2     :     0.018894  d :     0.168500
      dxz     :     0.043835
      dyz     :     0.042518
      dx2y2   :     0.020656
      dxy     :     0.042597
      f0      :     0.001627  f :     0.010717
      f+1     :     0.001279
      f-1     :     0.001580
      f+2     :     0.001194
      f-2     :     0.001941
      f+3     :     0.001410
      f-3     :     0.001685
  2 H s       :     0.809848  s :     0.809848
      pz      :     0.023544  p :     0.064098
      px      :     0.022292
      py      :     0.018262
  3 H s       :     0.809667  s :     0.809667
      pz      :     0.020022  p :     0.064101
      px      :     0.022923
      py      :     0.021156
  4 H s       :     0.809841  s :     0.809841
      pz      :     0.021326  p :     0.064037
      px      :     0.021335
      py      :     0.021375
  5 H s       :     0.707150  s :     0.707150
      pz      :     0.031935  p :     0.111534
      px      :     0.038723
      py      :     0.040877
  6 H s       :     0.711269  s :     0.711269
      pz      :     0.045057  p :     0.133050
      px      :     0.035513
      py      :     0.052481
  7 H s       :     0.711403  s :     0.711403
      pz      :     0.053171  p :     0.133380
      px      :     0.053165
      py      :     0.027045
  8 Pbs       :     3.687610  s :     3.687610
      pz      :     2.539750  p :     7.578574
      px      :     2.511903
      py      :     2.526920
      dz2     :     2.165793  d :    10.597784
      dxz     :     2.094545
      dyz     :     2.090282
      dx2y2   :     2.162143
      dxy     :     2.085021
      f0      :     0.054569  f :     0.242037
      f+1     :     0.037651
      f-1     :     0.034488
      f+2     :     0.023147
      f-2     :     0.008117
      f+3     :     0.044426
      f-3     :     0.039639
  9 Cls       :     5.730437  s :     5.730437
      pz      :     3.848708  p :    11.364083
      px      :     3.682028
      py      :     3.833348
      dz2     :     0.014679  d :     0.077588
      dxz     :     0.011035
      dyz     :     0.011694
      dx2y2   :     0.028828
      dxy     :     0.011352
      f0      :     0.000501  f :     0.005008
      f+1     :     0.000966
      f-1     :     0.000469
      f+2     :     0.000686
      f-2     :     0.000418
      f+3     :     0.001334
      f-3     :     0.000635
 10 Cls       :     5.738350  s :     5.738350
      pz      :     3.849487  p :    11.375022
      px      :     3.836142
      py      :     3.689393
      dz2     :     0.014250  d :     0.075401
      dxz     :     0.011967
      dyz     :     0.011048
      dx2y2   :     0.026597
      dxy     :     0.011539
      f0      :     0.000502  f :     0.004814
      f+1     :     0.000493
      f-1     :     0.000874
      f+2     :     0.000676
      f-2     :     0.000445
      f+3     :     0.000677
      f-3     :     0.001146
 11 Cls       :     5.739372  s :     5.739372
      pz      :     3.681452  p :    11.378622
      px      :     3.852342
      py      :     3.844829
      dz2     :     0.034051  d :     0.073492
      dxz     :     0.011101
      dyz     :     0.010890
      dx2y2   :     0.008164
      dxy     :     0.009286
      f0      :     0.001879  f :     0.004778
      f+1     :     0.000670
      f-1     :     0.000618
      f+2     :     0.000401
      f-2     :     0.000412
      f+3     :     0.000411
      f-3     :     0.000387


                      *****************************
                      * MAYER POPULATION ANALYSIS *
                      *****************************

  NA   - Mulliken gross atomic population
  ZA   - Total nuclear charge
  QA   - Mulliken gross atomic charge
  VA   - Mayer's total valence
  BVA  - Mayer's bonded valence
  FA   - Mayer's free valence

  ATOM       NA         ZA         QA         VA         BVA        FA
  0 C      6.2588     6.0000    -0.2588     3.8814     3.7669     0.1145
  1 N      7.3170     7.0000    -0.3170     3.4067     3.2629     0.1438
  2 H      0.8399     1.0000     0.1601     0.9646     0.9463     0.0184
  3 H      0.8394     1.0000     0.1606     0.9642     0.9459     0.0183
  4 H      0.8403     1.0000     0.1597     0.9644     0.9461     0.0183
  5 H      0.7144     1.0000     0.2856     0.9694     0.9486     0.0208
  6 H      0.7069     1.0000     0.2931     0.9716     0.9514     0.0202
  7 H      0.7079     1.0000     0.2921     0.9732     0.9530     0.0202
  8 Pb    21.1942    22.0000     0.8058     2.2627     1.9017     0.3609
  9 Cl    17.5265    17.0000    -0.5265     1.0359     0.7765     0.2593
 10 Cl    17.5338    17.0000    -0.5338     1.0248     0.7652     0.2596
 11 Cl    17.5208    17.0000    -0.5208     1.0450     0.7852     0.2598

  Mayer bond orders larger than 0.1
B(  0-C ,  1-N ) :   0.8813 B(  0-C ,  2-H ) :   0.9552 B(  0-C ,  3-H ) :   0.9546 
B(  0-C ,  4-H ) :   0.9545 B(  1-N ,  5-H ) :   0.8280 B(  1-N ,  6-H ) :   0.7978 
B(  1-N ,  7-H ) :   0.7991 B(  5-H , 11-Cl) :   0.1236 B(  6-H ,  9-Cl) :   0.1547 
B(  7-H , 10-Cl) :   0.1542 B(  8-Pb,  9-Cl) :   0.6175 B(  8-Pb, 10-Cl) :   0.6048 
B(  8-Pb, 11-Cl) :   0.6673 


                *******************************************
                * RELAXED MP2 DENSITY POPULATION ANALYSIS *
                *******************************************

------------------------------------------------------------------------------
                           ORCA POPULATION ANALYSIS
------------------------------------------------------------------------------
Input electron density              ... PbMACl3_mp2_md2_14.orca.pmp2re
BaseName (.gbw .S,...)              ... PbMACl3_mp2_md2_14.orca

                    ********************************
                    * MULLIKEN POPULATION ANALYSIS *
                    ********************************

-----------------------
MULLIKEN ATOMIC CHARGES
-----------------------
   0 C :   -0.277093
   1 N :   -0.311979
   2 H :    0.163857
   3 H :    0.164370
   4 H :    0.163482
   5 H :    0.280559
   6 H :    0.286671
   7 H :    0.285580
   8 Pb:    0.754525
   9 Cl:   -0.502875
  10 Cl:   -0.510018
  11 Cl:   -0.497078
Sum of atomic charges:   -0.0000000

--------------------------------
MULLIKEN REDUCED ORBITAL CHARGES
--------------------------------
  0 C s       :     3.278406  s :     3.278406
      pz      :     0.981966  p :     2.918485
      px      :     0.995836
      py      :     0.940683
      dz2     :     0.008894  d :     0.073194
      dxz     :     0.018415
      dyz     :     0.018051
      dx2y2   :     0.009818
      dxy     :     0.018015
      f0      :     0.000484  f :     0.007008
      f+1     :     0.000656
      f-1     :     0.000865
      f+2     :     0.000920
      f-2     :     0.002677
      f+3     :     0.000656
      f-3     :     0.000751
  1 N s       :     3.420736  s :     3.420736
      pz      :     1.277589  p :     3.831511
      px      :     1.284736
      py      :     1.269186
      dz2     :     0.007513  d :     0.056581
      dxz     :     0.014259
      dyz     :     0.013334
      dx2y2   :     0.008160
      dxy     :     0.013315
      f0      :     0.000257  f :     0.003151
      f+1     :     0.000312
      f-1     :     0.000354
      f+2     :     0.000366
      f-2     :     0.001237
      f+3     :     0.000302
      f-3     :     0.000323
  2 H s       :     0.813749  s :     0.813749
      pz      :     0.008461  p :     0.022394
      px      :     0.007959
      py      :     0.005973
  3 H s       :     0.813248  s :     0.813248
      pz      :     0.007176  p :     0.022382
      px      :     0.007534
      py      :     0.007672
  4 H s       :     0.814147  s :     0.814147
      pz      :     0.006977  p :     0.022371
      px      :     0.007623
      py      :     0.007771
  5 H s       :     0.682372  s :     0.682372
      pz      :     0.009580  p :     0.037069
      px      :     0.013264
      py      :     0.014226
  6 H s       :     0.669669  s :     0.669669
      pz      :     0.015303  p :     0.043660
      px      :     0.010557
      py      :     0.017801
  7 H s       :     0.670513  s :     0.670513
      pz      :     0.017777  p :     0.043907
      px      :     0.017909
      py      :     0.008222
  8 Pbs       :     3.903220  s :     3.903220
      pz      :     2.385365  p :     7.127502
      px      :     2.362027
      py      :     2.380110
      dz2     :     2.019672  d :    10.112734
      dxz     :     2.026293
      dyz     :     2.025215
      dx2y2   :     2.019535
      dxy     :     2.022018
      f0      :     0.019517  f :     0.102020
      f+1     :     0.015718
      f-1     :     0.015363
      f+2     :     0.012052
      f-2     :     0.006121
      f+3     :     0.016485
      f-3     :     0.016762
  9 Cls       :     5.949119  s :     5.949119
      pz      :     3.902424  p :    11.490214
      px      :     3.698785
      py      :     3.889005
      dz2     :     0.010844  d :     0.059851
      dxz     :     0.011142
      dyz     :     0.010197
      dx2y2   :     0.016524
      dxy     :     0.011144
      f0      :     0.000478  f :     0.003691
      f+1     :     0.000579
      f-1     :     0.000429
      f+2     :     0.000556
      f-2     :     0.000413
      f+3     :     0.000690
      f-3     :     0.000546
 10 Cls       :     5.949794  s :     5.949794
      pz      :     3.903374  p :    11.497636
      px      :     3.889380
      py      :     3.704882
      dz2     :     0.010799  d :     0.058964
      dxz     :     0.010611
      dyz     :     0.010808
      dx2y2   :     0.015740
      dxy     :     0.011006
      f0      :     0.000474  f :     0.003624
      f+1     :     0.000444
      f-1     :     0.000549
      f+2     :     0.000545
      f-2     :     0.000426
      f+3     :     0.000558
      f-3     :     0.000629
 11 Cls       :     5.949604  s :     5.949604
      pz      :     3.698724  p :    11.486030
      px      :     3.898590
      py      :     3.888716
      dz2     :     0.018396  d :     0.057822
      dxz     :     0.011190
      dyz     :     0.011120
      dx2y2   :     0.008177
      dxy     :     0.008938
      f0      :     0.000861  f :     0.003622
      f+1     :     0.000598
      f-1     :     0.000573
      f+2     :     0.000402
      f-2     :     0.000411
      f+3     :     0.000394
      f-3     :     0.000382


                     *******************************
                     * LOEWDIN POPULATION ANALYSIS *
                     *******************************

----------------------
LOEWDIN ATOMIC CHARGES
----------------------
   0 C :   -0.287069
   1 N :    0.075931
   2 H :    0.128076
   3 H :    0.128250
   4 H :    0.128169
   5 H :    0.180283
   6 H :    0.154062
   7 H :    0.153549
   8 Pb:   -0.130775
   9 Cl:   -0.165304
  10 Cl:   -0.181426
  11 Cl:   -0.183746

-------------------------------
LOEWDIN REDUCED ORBITAL CHARGES
-------------------------------
  0 C s       :     2.854389  s :     2.854389
      pz      :     1.035002  p :     3.087679
      px      :     1.044245
      py      :     1.008431
      dz2     :     0.030357  d :     0.306543
      dxz     :     0.079483
      dyz     :     0.081956
      dx2y2   :     0.034359
      dxy     :     0.080387
      f0      :     0.005456  f :     0.038459
      f+1     :     0.004104
      f-1     :     0.005884
      f+2     :     0.004552
      f-2     :     0.007355
      f+3     :     0.005107
      f-3     :     0.006001
  1 N s       :     3.002197  s :     3.002197
      pz      :     1.247593  p :     3.742655
      px      :     1.250488
      py      :     1.244575
      dz2     :     0.019136  d :     0.168428
      dxz     :     0.043689
      dyz     :     0.042327
      dx2y2   :     0.020925
      dxy     :     0.042350
      f0      :     0.001643  f :     0.010789
      f+1     :     0.001286
      f-1     :     0.001590
      f+2     :     0.001196
      f-2     :     0.001956
      f+3     :     0.001420
      f-3     :     0.001698
  2 H s       :     0.807742  s :     0.807742
      pz      :     0.023530  p :     0.064182
      px      :     0.022303
      py      :     0.018349
  3 H s       :     0.807566  s :     0.807566
      pz      :     0.020069  p :     0.064184
      px      :     0.022931
      py      :     0.021185
  4 H s       :     0.807720  s :     0.807720
      pz      :     0.021364  p :     0.064111
      px      :     0.021355
      py      :     0.021391
  5 H s       :     0.708253  s :     0.708253
      pz      :     0.031894  p :     0.111464
      px      :     0.038704
      py      :     0.040866
  6 H s       :     0.713040  s :     0.713040
      pz      :     0.045006  p :     0.132898
      px      :     0.035473
      py      :     0.052419
  7 H s       :     0.713227  s :     0.713227
      pz      :     0.053080  p :     0.133224
      px      :     0.053097
      py      :     0.027047
  8 Pbs       :     3.702142  s :     3.702142
      pz      :     2.545863  p :     7.598102
      px      :     2.520299
      py      :     2.531940
      dz2     :     2.161730  d :    10.590636
      dxz     :     2.094985
      dyz     :     2.090542
      dx2y2   :     2.158121
      dxy     :     2.085258
      f0      :     0.054048  f :     0.239895
      f+1     :     0.037355
      f-1     :     0.034204
      f+2     :     0.022980
      f-2     :     0.008070
      f+3     :     0.044010
      f-3     :     0.039228
  9 Cls       :     5.733687  s :     5.733687
      pz      :     3.843504  p :    11.347779
      px      :     3.677030
      py      :     3.827245
      dz2     :     0.014852  d :     0.078736
      dxz     :     0.011160
      dyz     :     0.011849
      dx2y2   :     0.029381
      dxy     :     0.011494
      f0      :     0.000508  f :     0.005102
      f+1     :     0.000987
      f-1     :     0.000472
      f+2     :     0.000699
      f-2     :     0.000419
      f+3     :     0.001372
      f-3     :     0.000646
 10 Cls       :     5.741572  s :     5.741572
      pz      :     3.844282  p :    11.358497
      px      :     3.830371
      py      :     3.683844
      dz2     :     0.014413  d :     0.076457
      dxz     :     0.012118
      dyz     :     0.011166
      dx2y2   :     0.027087
      dxy     :     0.011673
      f0      :     0.000509  f :     0.004900
      f+1     :     0.000497
      f-1     :     0.000891
      f+2     :     0.000689
      f-2     :     0.000448
      f+3     :     0.000694
      f-3     :     0.001171
 11 Cls       :     5.742591  s :     5.742591
      pz      :     3.676105  p :    11.361829
      px      :     3.846982
      py      :     3.838741
      dz2     :     0.034724  d :     0.074461
      dxz     :     0.011221
      dyz     :     0.010997
      dx2y2   :     0.008176
      dxy     :     0.009342
      f0      :     0.001932  f :     0.004866
      f+1     :     0.000687
      f-1     :     0.000631
      f+2     :     0.000402
      f-2     :     0.000413
      f+3     :     0.000413
      f-3     :     0.000387


                      *****************************
                      * MAYER POPULATION ANALYSIS *
                      *****************************

  NA   - Mulliken gross atomic population
  ZA   - Total nuclear charge
  QA   - Mulliken gross atomic charge
  VA   - Mayer's total valence
  BVA  - Mayer's bonded valence
  FA   - Mayer's free valence

  ATOM       NA         ZA         QA         VA         BVA        FA
  0 C      6.2771     6.0000    -0.2771     3.8830     3.7688     0.1142
  1 N      7.3120     7.0000    -0.3120     3.4128     3.2695     0.1434
  2 H      0.8361     1.0000     0.1639     0.9635     0.9452     0.0183
  3 H      0.8356     1.0000     0.1644     0.9631     0.9448     0.0183
  4 H      0.8365     1.0000     0.1635     0.9633     0.9451     0.0183
  5 H      0.7194     1.0000     0.2806     0.9750     0.9542     0.0207
  6 H      0.7133     1.0000     0.2867     0.9779     0.9577     0.0201
  7 H      0.7144     1.0000     0.2856     0.9795     0.9594     0.0201
  8 Pb    21.2455    22.0000     0.7545     2.3396     1.9838     0.3558
  9 Cl    17.5029    17.0000    -0.5029     1.0785     0.8205     0.2580
 10 Cl    17.5100    17.0000    -0.5100     1.0676     0.8093     0.2583
 11 Cl    17.4971    17.0000    -0.4971     1.0871     0.8287     0.2584

  Mayer bond orders larger than 0.1
B(  0-C ,  1-N ) :   0.8893 B(  0-C ,  2-H ) :   0.9525 B(  0-C ,  3-H ) :   0.9519 
B(  0-C ,  4-H ) :   0.9518 B(  1-N ,  5-H ) :   0.8244 B(  1-N ,  6-H ) :   0.7940 
B(  1-N ,  7-H ) :   0.7953 B(  5-H , 11-Cl) :   0.1330 B(  6-H ,  9-Cl) :   0.1652 
B(  7-H , 10-Cl) :   0.1646 B(  8-Pb,  9-Cl) :   0.6429 B(  8-Pb, 10-Cl) :   0.6303 
B(  8-Pb, 11-Cl) :   0.6955 


-------
TIMINGS
-------

Total time                :  497.327 sec
Integral trafo            :    2.512 sec (  0.5%)
I/O of integrals          :    0.156 sec (  0.0%)
K(i,j) Operators          :    6.293 sec (  1.3%)
T(i,j) pair energies      :    1.167 sec (  0.2%)
V-calculation             :    0.012 sec (  0.0%)
V**(-1/2)                 :    0.029 sec (  0.0%)
Gamma(ia|P)               :    5.604 sec (  1.1%)
Gamma-Trafo               :    0.827 sec (  0.2%)
D(virtual)                :    2.425 sec (  0.5%)
D(internal)               :    4.127 sec (  0.8%)
W(virtual)                :    5.042 sec (  1.0%)
W(internal)               :   14.693 sec (  3.0%)
L(virtual)                :    6.046 sec (  1.2%)
L(internal)               :    0.336 sec (  0.1%)
G(D)                      :   14.184 sec (  2.9%)
G(Z)                      :   13.884 sec (  2.8%)
Z-Vector Solution         :  314.472 sec ( 63.2%)
Z-Vector Solution         :  314.472 sec ( 63.2%)
3-Index Derivative 
+ Separable RIJ part      :    4.058 sec (  0.8%)
2-Index Derivative 
+ Separable RIJ part      :    0.027 sec (  0.0%)
Separable Gradient (COSX) :   99.845 sec ( 20.1%)


---------------------------------------
MP2 TOTAL ENERGY:    -1669.621783130 Eh
---------------------------------------

The final MP2 gradient
  0:   0.00046405   0.00096796  -0.00186807
  1:   0.00395403   0.00358667  -0.00627365
  2:   0.00254346  -0.00242666   0.00293465
  3:  -0.00293018   0.00248063   0.00249310
  4:   0.00294428   0.00318773  -0.00213211
  5:  -0.00791993  -0.00762397   0.00181355
  6:  -0.00027724  -0.00260059  -0.00382997
  7:  -0.00125235  -0.00076006  -0.00316965
  8:   0.02445667   0.02562997   0.02383061
  9:  -0.01873397  -0.00119159  -0.00049317
 10:   0.00151783  -0.01437801   0.00070954
 11:  -0.00491555  -0.00658793  -0.01447455

-----------------------------------
NORM OF THE MP2 GRADIENT:  0.054386
-----------------------------------

Entering the calculation of the dispersion correction...

Checking the input atom types...

Done


-------------------------------------------------------------------------------
                          DFT DISPERSION CORRECTION                            
                                                                               
                                DFTD3 V2.1  Rev 6                               
                          USING Becke-Johnson damping                          
-------------------------------------------------------------------------------
The B2PLYP functional is recognized
Active option DFTDOPT                   ...         4   

molecular C6(AA) [au] = 4868.617675 


            DFT-D V3
 parameters
 s6 scaling factor         :     0.6400 
 a1 scaling factor         :     0.3065 
 s8 scaling factor         :     0.9147 
 a2 scaling factor         :     5.0570 
 ad hoc parameters k1-k3   :    16.0000     1.3333    -4.0000 

 Edisp/kcal,au: -8.722148584958  -0.013899627042 
 E6   /kcal   :  -3.992886039 
 E8   /kcal   :  -4.729262546 
 % E8         :  54.221302236 

-------------------------   ----------------
Dispersion correction           -0.013899627
-------------------------   ----------------


-------------------------   --------------------
FINAL SINGLE POINT ENERGY     -1669.635682756786
-------------------------   --------------------


                            ***************************************
                            *     ORCA property calculations      *
                            ***************************************


  WARNING: The energy has been calculated at the MP2 level but the densities
           used in the property calculations are still SCF densities
           MP2 response densities have not been calculated 
           use %mp2 Density relaxed end
           or  %mp2 Density unrelaxed end

                                    ---------------------
                                    Active property flags
                                    ---------------------
   (+) Dipole Moment


------------------------------------------------------------------------------
                       ORCA ELECTRIC PROPERTIES CALCULATION
------------------------------------------------------------------------------

Dipole Moment Calculation                       ... on
Quadrupole Moment Calculation                   ... off
Polarizability Calculation                      ... off
GBWName                                         ... PbMACl3_mp2_md2_14.orca.gbw
Electron density file                           ... PbMACl3_mp2_md2_14.orca.scfp.tmp

-------------
DIPOLE MOMENT
-------------
                                X             Y             Z
Electronic contribution:    -67.40389     -86.60764     -68.69831
Nuclear contribution   :     68.53657      87.94254      69.55848
                        -----------------------------------------
Total Dipole Moment    :      1.13268       1.33490       0.86017
                        -----------------------------------------
Magnitude (a.u.)       :      1.95059
Magnitude (Debye)      :      4.95801


                         *** MP2 UNRELAXED DENSITY ***

------------------------------------------------------------------------------
                       ORCA ELECTRIC PROPERTIES CALCULATION
------------------------------------------------------------------------------

Dipole Moment Calculation                       ... on
Quadrupole Moment Calculation                   ... off
Polarizability Calculation                      ... off
GBWName                                         ... PbMACl3_mp2_md2_14.orca.gbw
Electron density file                           ... PbMACl3_mp2_md2_14.orca.pmp2ur

-------------
DIPOLE MOMENT
-------------
                                X             Y             Z
Electronic contribution:    -67.40187     -86.60412     -68.69327
Nuclear contribution   :     68.53657      87.94254      69.55848
                        -----------------------------------------
Total Dipole Moment    :      1.13470       1.33842       0.86521
                        -----------------------------------------
Magnitude (a.u.)       :      1.95640
Magnitude (Debye)      :      4.97277


                           *** MP2 RELAXED DENSITY ***

------------------------------------------------------------------------------
                       ORCA ELECTRIC PROPERTIES CALCULATION
------------------------------------------------------------------------------

Dipole Moment Calculation                       ... on
Quadrupole Moment Calculation                   ... off
Polarizability Calculation                      ... off
GBWName                                         ... PbMACl3_mp2_md2_14.orca.gbw
Electron density file                           ... PbMACl3_mp2_md2_14.orca.pmp2re

-------------
DIPOLE MOMENT
-------------
                                X             Y             Z
Electronic contribution:    -67.43331     -86.64046     -68.71774
Nuclear contribution   :     68.53657      87.94254      69.55848
                        -----------------------------------------
Total Dipole Moment    :      1.10326       1.30207       0.84074
                        -----------------------------------------
Magnitude (a.u.)       :      1.90248
Magnitude (Debye)      :      4.83572


Timings for individual modules:

Sum of individual times         ...      768.834 sec (=  12.814 min)
GTO integral calculation        ...        0.609 sec (=   0.010 min)   0.1 %
SCF iterations                  ...      270.735 sec (=   4.512 min)  35.2 %
MP2 module                      ...      497.490 sec (=   8.292 min)  64.7 %
                             ****ORCA TERMINATED NORMALLY****
TOTAL RUN TIME: 0 days 0 hours 12 minutes 49 seconds 351 msec
