
                                 *****************
                                 * O   R   C   A *
                                 *****************

           --- An Ab Initio, DFT and Semiempirical electronic structure package ---

                  #######################################################
                  #                        -***-                        #
                  #  Department of molecular theory and spectroscopy    #
                  #              Directorship: Frank Neese              #
                  # Max Planck Institute for Chemical Energy Conversion #
                  #                  D-45470 Muelheim/Ruhr              #
                  #                       Germany                       #
                  #                                                     #
                  #                  All rights reserved                #
                  #                        -***-                        #
                  #######################################################


                         Program Version 3.0.3 - RELEASE   -


 With contributions from (in alphabetic order):
   Ute Becker             : Parallelization
   Dmytro Bykov           : SCF Hessian
   Dmitry Ganyushin       : Spin-Orbit,Spin-Spin,Magnetic field MRCI
   Andreas Hansen         : Spin unrestricted coupled pair/coupled cluster methods
   Dimitrios Liakos       : Extrapolation schemes; parallel MDCI
   Robert Izsak           : Overlap fitted RIJCOSX, COSX-SCS-MP3
   Christian Kollmar      : KDIIS, OOCD, Brueckner-CCSD(T), CCSD density
   Simone Kossmann        : Meta GGA functionals, TD-DFT gradient, OOMP2, MP2 Hessian
   Taras Petrenko         : DFT Hessian,TD-DFT gradient, ASA and ECA modules, normal mode analysis, Resonance Raman, ABS, FL, XAS/XES, NRVS
   Christoph Reimann      : Effective Core Potentials
   Michael Roemelt        : Restricted open shell CIS
   Christoph Riplinger    : Improved optimizer, TS searches, QM/MM, DLPNO-CCSD
   Barbara Sandhoefer     : DKH picture change effects
   Igor Schapiro          : Molecular dynamics
   Kantharuban Sivalingam : CASSCF convergence, NEVPT2
   Boris Wezisla          : Elementary symmetry handling
   Frank Wennmohs         : Technical directorship


 We gratefully acknowledge several colleagues who have allowed us to
 interface, adapt or use parts of their codes:
   Stefan Grimme, W. Hujo, H. Kruse, T. Risthaus : VdW corrections, initial TS optimization,
                                                   DFT functionals, gCP
   Ed Valeev                                     : LibInt (2-el integral package), F12 methods
   Garnet Chan, S. Sharma, R. Olivares           : DMRG
   Ulf Ekstrom                                   : XCFun DFT Library
   Mihaly Kallay                                 : mrcc  (arbitrary order and MRCC methods)
   Andreas Klamt, Michael Diedenhofen            : otool_cosmo (COSMO solvation model)
   Frank Weinhold                                : gennbo (NPA and NBO analysis)
   Christopher J. Cramer and Donald G. Truhlar   : smd solvation model


 Your calculation uses the libint2 library for the computation of 2-el integrals
 For citations please refer to: http://libint.valeyev.net

 This ORCA versions uses:
   CBLAS   interface :  Fast vector & matrix operations
   LAPACKE interface :  Fast linear algebra routines
   SCALAPACK package :  Parallel linear algebra routines


Your calculation utilizes the basis: Ahlrichs-TZV
Cite in your paper:
H - Kr: A. Schaefer, H. Horn and R. Ahlrichs, J. Chem. Phys. 97, 2571 (1992).

The def2-TZV basis will be loaded
Cite in your paper:
 	F. Weigend, R. Ahlrichs, Phys. Chem. Chem. Phys. 2005, 7, 3297.

Your calculation utilizes the atom-pairwise dispersion correction
with the Becke-Johnson damping scheme (D3BJ)
Cite in your paper:
S.Grimme, S.Ehrlich, L.Goerigk, J Comput Chem, (2011), 32, 1456–1465 
S.Grimme, J.Antony, S.Ehrlich and H.Krieg, J.Chem.Phys., 132, (2010), 154104 
   

================================================================================
                                        WARNINGS
                       Please study these warnings very carefully!
================================================================================

WARNING: The RI method has been chosen with no auxiliary basis (AUX or GTOAUX in BASIS block)
        Standard TZV/J expansion basis used (GTOAUX=TZV_J)

Now building the actual basis set
cite the ECPs for Pb [SD(60,MDF)] as follows:
  B. Metz, H. Stoll, M. Dolg, J. Chem. Phys. 113, 2563 (2000).

ECP parameters for Pb [SD(60,MDF)] have been obtained from:
  pseudopotential library of the Stuttgart/Cologne group
  http://www.theochem.uni-stuttgart.de/pseudopotentials/

cite the ECP basis sets for Pb [DEF2-TZVP] as follows:
  F. Weigend, R. Ahlrichs; Phys. Chem. Chem. Phys. 7, 3297(2005).

ECP basis sets for Pb [DEF2-TZVP] have been obtained from:
  Turbomole basis set library
  ftp://ftp.chemie.uni-karlsruhe.de/pub/basen/



INFO   : the flag for use of LIBINT has been found!

================================================================================
                                       INPUT FILE
================================================================================
NAME = PbMACl3_mp2_md2_11.orca
|  1> ! RIJCOSX RI-B2PLYP D3BJ def2-TZVP ECP{def2-TZVP} TIGHTSCF Grid5 FinalGrid6 SlowConv MORead
|  2> %method
|  3>  RunTyp Gradient
|  4>  end
|  5> %maxcore 1000
|  6> %moinp "previous.gbw"
|  7> *xyz 0 1
|  8> C -0.394281 0.276013 -0.426662 
|  9> N -1.165380 -0.685592 -1.253010 
| 10> H 0.248796 -0.278576 0.260517 
| 11> H -1.090820 0.897444 0.140826 
| 12> H 0.215705 0.904875 -1.079130 
| 13> H -1.783150 -1.324970 -0.698370 
| 14> H -0.582260 -1.326300 -1.835140 
| 15> H -1.813140 -0.240924 -1.938260 
| 16> Pb -2.740180 -2.770760 -3.034480 
| 17> Cl -0.920502 -3.065040 -1.370100 
| 18> Cl -3.425370 -0.928022 -1.406920 
| 19> Cl -3.054370 -2.929260 -0.594574 
| 20> *
| 21> 
| 22>                          ****END OF INPUT****
================================================================================

                     *******************************
                     * Energy+Gradient Calculation *
                     *******************************

---------------------------------
CARTESIAN COORDINATES (ANGSTROEM)
---------------------------------
  C     -0.394281    0.276013   -0.426662
  N     -1.165380   -0.685592   -1.253010
  H      0.248796   -0.278576    0.260517
  H     -1.090820    0.897444    0.140826
  H      0.215705    0.904875   -1.079130
  H     -1.783150   -1.324970   -0.698370
  H     -0.582260   -1.326300   -1.835140
  H     -1.813140   -0.240924   -1.938260
  Pb    -2.740180   -2.770760   -3.034480
  Cl    -0.920502   -3.065040   -1.370100
  Cl    -3.425370   -0.928022   -1.406920
  Cl    -3.054370   -2.929260   -0.594574

----------------------------
CARTESIAN COORDINATES (A.U.)
----------------------------
  NO LB      ZA    FRAG    MASS        X           Y           Z
   0 C     6.0000    0    12.011         -0.745083109808605          0.521588979402006         -0.806274331751109
   1 N     7.0000    0    14.007         -2.202249041949148         -1.295581119607339         -2.367845743064668
   2 H     1.0000    0     1.008          0.470156303215072         -0.526432347483247          0.492305783230763
   3 H     1.0000    0     1.008         -2.061351061403979          1.695923380530824          0.266122572535594
   4 H     1.0000    0     1.008          0.407623375717484          1.709965935431992         -2.039260162898440
   5 H     1.0000    0     1.008         -3.369665155701680         -2.503830435661641         -1.319728040146585
   6 H     1.0000    0     1.008         -1.100311938736988         -2.506343771419756         -3.467912017404246
   7 H     1.0000    0     1.008         -3.426338042457978         -0.455280379088844         -3.662780576334205
   8 Pb   22.0000*   0   207.200  -5.178189757648336  -5.235977582823647  -5.734336158861360
   9 Cl   17.0000    0    35.453         -1.739496685726780         -5.792086189513993         -2.589113776085507
  10 Cl   17.0000    0    35.453         -6.473011207349838         -1.753707426253868         -2.658693492336487
  11 Cl   17.0000    0    35.453         -5.771922811665053         -5.535499175050166         -1.123582026350094
* core charge reduced due to ECP

--------------------------------
INTERNAL COORDINATES (ANGSTROEM)
--------------------------------
 C      0   0   0   0.000000     0.000     0.000
 N      1   0   0   1.483957     0.000     0.000
 H      1   2   0   1.092397   109.099     0.000
 H      1   2   3   1.092422   109.061   240.173
 H      1   2   3   1.092367   109.305   120.114
 H      2   1   3   1.047888   114.015    60.210
 H      2   1   3   1.043749   114.711   299.789
 H      2   1   3   1.042540   114.361   179.708
 Pb     7   2   1   2.860332    97.029   179.800
 Cl     7   2   1   1.831362   109.755   120.079
 Cl     8   2   1   1.831314   101.318   239.149
 Cl     6   2   1   2.049517   150.468   186.641

---------------------------
INTERNAL COORDINATES (A.U.)
---------------------------
 C      0   0   0   0.000000     0.000     0.000
 N      1   0   0   2.804273     0.000     0.000
 H      1   2   0   2.064332   109.099     0.000
 H      1   2   3   2.064378   109.061   240.173
 H      1   2   3   2.064274   109.305   120.114
 H      2   1   3   1.980222   114.015    60.210
 H      2   1   3   1.972399   114.711   299.789
 H      2   1   3   1.970116   114.361   179.708
 Pb     7   2   1   5.405244    97.029   179.800
 Cl     7   2   1   3.460773   109.755   120.079
 Cl     8   2   1   3.460682   101.318   239.149
 Cl     6   2   1   3.873026   150.468   186.641

---------------------
BASIS SET INFORMATION
---------------------
There are 5 groups of distinct atoms

 Group   1 Type C   : 11s6p2d1f contracted to 5s3p2d1f pattern {62111/411/11/1}
 Group   2 Type N   : 11s6p2d1f contracted to 5s3p2d1f pattern {62111/411/11/1}
 Group   3 Type H   : 5s1p contracted to 3s1p pattern {311/1}
 Group   4 Type Pb  : 10s9p8d2f contracted to 6s5p3d2f pattern {421111/33111/611/11}
 Group   5 Type Cl  : 14s9p3d1f contracted to 5s5p2d1f pattern {73211/51111/21/1}

Atom   0C    basis set group =>   1
Atom   1N    basis set group =>   2
Atom   2H    basis set group =>   3
Atom   3H    basis set group =>   3
Atom   4H    basis set group =>   3
Atom   5H    basis set group =>   3
Atom   6H    basis set group =>   3
Atom   7H    basis set group =>   3
Atom   8Pb   basis set group =>   4
Atom   9Cl   basis set group =>   5
Atom  10Cl   basis set group =>   5
Atom  11Cl   basis set group =>   5
-------------------------------
AUXILIARY BASIS SET INFORMATION
-------------------------------
There are 5 groups of distinct atoms

 Group   1 Type C   : 12s5p4d2f1g contracted to 6s4p3d1f1g pattern {711111/2111/211/2/1}
 Group   2 Type N   : 12s5p4d2f1g contracted to 6s4p3d1f1g pattern {711111/2111/211/2/1}
 Group   3 Type H   : 5s2p1d contracted to 3s1p1d pattern {311/2/1}
 Group   4 Type Pb  : 31s12p8d6f3g contracted to 31s12p8d6f3g pattern {1111111111111111111111111111111/111111111111/11111111/111111/111}
 Group   5 Type Cl  : 14s5p5d2f1g contracted to 8s4p3d1f1g pattern {71111111/2111/311/2/1}

Atom   0C    basis set group =>   1
Atom   1N    basis set group =>   2
Atom   2H    basis set group =>   3
Atom   3H    basis set group =>   3
Atom   4H    basis set group =>   3
Atom   5H    basis set group =>   3
Atom   6H    basis set group =>   3
Atom   7H    basis set group =>   3
Atom   8Pb   basis set group =>   4
Atom   9Cl   basis set group =>   5
Atom  10Cl   basis set group =>   5
Atom  11Cl   basis set group =>   5

-------------------------
ECP PARAMETER INFORMATION
-------------------------

 Group 1, Type Pb ECP SD(60,MDF) (replacing 60 core electrons, lmax=5)

Atom   8Pb   ECP group =>   1


------------------------------------------------------------------------------
                           ORCA GTO INTEGRAL CALCULATION
                           -- RI-GTO INTEGRALS CHOSEN --
------------------------------------------------------------------------------

                         BASIS SET STATISTICS AND STARTUP INFO

Gaussian basis set:
 # of primitive gaussian shells          ...  186
 # of primitive gaussian functions       ...  420
 # of contracted shells                  ...  101
 # of contracted basis functions         ...  259
 Highest angular momentum                ...    3
 Maximum contraction depth               ...    7
Auxiliary gaussian basis set:
 # of primitive gaussian shells          ...  237
 # of primitive gaussian functions       ...  643
 # of contracted shells                  ...  171
 # of contracted aux-basis functions     ...  493
 Highest angular momentum                ...    4
 Maximum contraction depth               ...    7
Ratio of auxiliary to basis functions    ...  1.90
Integral package used                  ... LIBINT
 One Electron integrals                  
   ECP integrals                         ... done
 Ordering auxiliary basis shells         ... done
 Integral threshhold             Thresh  ...  2.500e-11
 Primitive cut-off               TCut    ...  2.500e-12
 Pre-screening matrix                    ... done
 Shell pair data                         ... 
 Ordering of the shell pairs             ... done (   0.001 sec) 4656 of 5151 pairs
 Determination of significant pairs      ... done (   0.000 sec)
 Creation of shell pair data             ... done (   0.002 sec)
 Storage of shell pair data              ... done (   0.001 sec)
 Shell pair data done in (   0.004 sec)
 Computing two index integrals           ... done
 Cholesky decomposition of the V-matrix  ... done


Timings:
 Total evaluation time                   ...   0.578 sec (  0.010 min)
 One electron matrix time                ...   0.303 sec (  0.005 min) = 52.5%
 Schwartz matrix evaluation time         ...   0.226 sec (  0.004 min) = 39.0%
 Two index repulsion integral time       ...   0.009 sec (  0.000 min) =  1.5%
 Cholesky decomposition of V             ...   0.009 sec (  0.000 min) =  1.6%
 Three index repulsion integral time     ...   0.000 sec (  0.000 min) =  0.0%

-------------------------------------------------------------------------------
                                 ORCA SCF
-------------------------------------------------------------------------------

------------
SCF SETTINGS
------------
Hamiltonian:
 Density Functional     Method          .... DFT(GTOs)
 Exchange Functional    Exchange        .... B88
   X-Alpha parameter    XAlpha          ....  0.666667
   Becke's b parameter  XBeta           ....  0.004200
 Correlation Functional Correlation     .... LYP
 LDA part of GGA corr.  LDAOpt          .... VWN-3
 Gradients option       PostSCFGGA      .... off
 Hybrid DFT is turned on
   Fraction HF Exchange ScalHFX         ....  0.530000
   Scaling of DF-GGA-X  ScalDFX         ....  0.470000
   Scaling of DF-GGA-C  ScalDFC         ....  0.730000
   Scaling of DF-LDA-C  ScalLDAC        ....  0.730000
   Perturbative correction              ....  0.270000
 RI-approximation to the Coulomb term is turned on
   Number of auxiliary basis functions  .... 493
   RIJ-COSX (HFX calculated with COS-X)).... on


General Settings:
 Integral files         IntName         .... PbMACl3_mp2_md2_11.orca
 Hartree-Fock type      HFTyp           .... RHF
 Total Charge           Charge          ....    0
 Multiplicity           Mult            ....    1
 Number of Electrons    NEL             ....   92
 Basis Dimension        Dim             ....  259
 Nuclear Repulsion      ENuc            ....    702.5482397345 Eh

Convergence Acceleration:
 DIIS                   CNVDIIS         .... on
   Start iteration      DIISMaxIt       ....     0
   Startup error        DIISStart       ....  0.200000
   # of expansion vecs  DIISMaxEq       ....     5
   Bias factor          DIISBfac        ....   1.050
   Max. coefficient     DIISMaxC        ....  10.000
 Newton-Raphson         CNVNR           .... off
 SOSCF                  CNVSOSCF        .... on
   Start iteration      SOSCFMaxIt      ....   150
   Startup grad/error   SOSCFStart      ....  0.001000
 Level Shifting         CNVShift        .... on
   Level shift para.    LevelShift      ....    0.2500
   Turn off err/grad.   ShiftErr        ....    0.0000
 Zerner damping         CNVZerner       .... off
 Static damping         CNVDamp         .... on
   Fraction old density DampFac         ....    0.8500
   Max. Damping (<1)    DampMax         ....    0.9800
   Min. Damping (>=0)   DampMin         ....    0.0000
   Turn off err/grad.   DampErr         ....    0.0300
 Fernandez-Rico         CNVRico         .... off

SCF Procedure:
 Maximum # iterations   MaxIter         ....   125
 SCF integral mode      SCFMode         .... Direct
   Integral package                     .... LIBINT
 Reset frequeny         DirectResetFreq ....    20
 Integral Threshold     Thresh          ....  2.500e-11 Eh
 Primitive CutOff       TCut            ....  2.500e-12 Eh

Convergence Tolerance:
 Convergence Check Mode ConvCheckMode   .... Total+1el-Energy
 Energy Change          TolE            ....  1.000e-08 Eh
 1-El. energy change                    ....  1.000e-05 Eh
 Orbital Gradient       TolG            ....  1.000e-05
 Orbital Rotation angle TolX            ....  1.000e-05
 DIIS Error             TolErr          ....  5.000e-07


Diagonalization of the overlap matrix:
Smallest eigenvalue                        ... 1.030e-03
Time for diagonalization                   ...    0.017 sec
Threshold for overlap eigenvalues          ... 1.000e-08
Number of eigenvalues below threshold      ... 0
Time for construction of square roots      ...    0.006 sec
Total time needed                          ...    0.023 sec

---------------------
INITIAL GUESS: MOREAD
---------------------
Guess MOs are being read from file: previous.gbw
Input geometry compatible with but different from current geometry
Input basis set matches current basis set (good)
MOs were renormalized
MOs were reorthogonalized (Schmidt)
                      ------------------
                      INITIAL GUESS DONE (   0.1 sec)
                      ------------------
-------------------
DFT GRID GENERATION
-------------------

General Integration Accuracy     IntAcc      ...  5.010
Radial Grid Type                 RadialGrid  ... Gauss-Chebyshev
Angular Grid (max. acc.)         AngularGrid ... Lebedev-434
Angular grid pruning method      GridPruning ... 3 (G Style)
Weight generation scheme         WeightScheme... Becke
Basis function cutoff            BFCut       ...    1.0000e-11
Integration weight cutoff        WCut        ...    1.0000e-14
Grids for H and He will be reduced by one unit

# of grid points (after initial pruning)     ... 115882 (   0.0 sec)
# of grid points (after weights+screening)   ... 107735 (   0.2 sec)
nearest neighbour list constructed           ...    0.0 sec
Grid point re-assignment to atoms done       ...    0.0 sec
Grid point division into batches done        ...    0.9 sec
Reduced shell lists constructed in    3.4 sec

Total number of grid points                  ...   107735
Total number of batches                      ...     1688
Average number of points per batch           ...       63
Average number of grid points per atom       ...     8978
Average number of shells per batch           ...    59.44 (58.85%)
Average number of basis functions per batch  ...   160.10 (61.81%)
Average number of large shells per batch     ...    46.24 (77.80%)
Average number of large basis fcns per batch ...   122.04 (76.23%)
Maximum spatial batch extension              ...  34.31, 35.07, 30.37 au
Average spatial batch extension              ...   2.43,  2.38,  2.40 au

Time for grid setup =    3.689 sec

--------------------
COSX GRID GENERATION
--------------------

General Integration Accuracy     IntAcc      ...  3.340
Radial Grid Type                 RadialGrid  ... Gauss-Chebyshev
Angular Grid (max. acc.)         AngularGrid ... Lebedev-50
Angular grid pruning method      GridPruning ... 3 (G Style)
Weight generation scheme         WeightScheme... Becke
Basis function cutoff            BFCut       ...    1.0000e-11
Integration weight cutoff        WCut        ...    1.0000e-14
Grids for H and He will be reduced by one unit

# of grid points (after initial pruning)     ...   6578 (   0.0 sec)
# of grid points (after weights+screening)   ...   6163 (   0.0 sec)
nearest neighbour list constructed           ...    0.0 sec
Grid point re-assignment to atoms done       ...    0.0 sec
Grid point division into batches done        ...    0.0 sec
Reduced shell lists constructed in    0.2 sec

Total number of grid points                  ...     6163
Total number of batches                      ...      102
Average number of points per batch           ...       60
Average number of grid points per atom       ...      514
Average number of shells per batch           ...    71.13 (70.42%)
Average number of basis functions per batch  ...   193.07 (74.54%)
Average number of large shells per batch     ...    57.95 (81.48%)
Average number of large basis fcns per batch ...   155.68 (80.63%)
Maximum spatial batch extension              ...  33.80, 31.08, 36.53 au
Average spatial batch extension              ...   6.39,  5.80,  6.76 au

Overlap Fitting                  UseSFitting ... on
Constructing numerical overlap ... done (      0.1 sec)
Inverting numerical overlap    ... done (      0.0 sec)
Obtaining analytic overlap     ... done (      0.0 sec)
Final contraction and storage  ... done (      0.0 sec)


General Integration Accuracy     IntAcc      ...  3.670
Radial Grid Type                 RadialGrid  ... Gauss-Chebyshev
Angular Grid (max. acc.)         AngularGrid ... Lebedev-50
Angular grid pruning method      GridPruning ... 3 (G Style)
Weight generation scheme         WeightScheme... Becke
Basis function cutoff            BFCut       ...    1.0000e-11
Integration weight cutoff        WCut        ...    1.0000e-14
Grids for H and He will be reduced by one unit

# of grid points (after initial pruning)     ...   8124 (   0.0 sec)
# of grid points (after weights+screening)   ...   7589 (   0.0 sec)
nearest neighbour list constructed           ...    0.0 sec
Grid point re-assignment to atoms done       ...    0.0 sec
Grid point division into batches done        ...    0.0 sec
Reduced shell lists constructed in    0.2 sec

Total number of grid points                  ...     7589
Total number of batches                      ...      123
Average number of points per batch           ...       61
Average number of grid points per atom       ...      632
Average number of shells per batch           ...    70.41 (69.71%)
Average number of basis functions per batch  ...   191.41 (73.90%)
Average number of large shells per batch     ...    56.89 (80.79%)
Average number of large basis fcns per batch ...   152.10 (79.46%)
Maximum spatial batch extension              ...  35.40, 31.06, 34.61 au
Average spatial batch extension              ...   5.71,  5.40,  6.02 au

Overlap Fitting                  UseSFitting ... on
Constructing numerical overlap ... done (      0.1 sec)
Inverting numerical overlap    ... done (      0.0 sec)
Obtaining analytic overlap     ... done (      0.0 sec)
Final contraction and storage  ... done (      0.0 sec)


General Integration Accuracy     IntAcc      ...  4.010
Radial Grid Type                 RadialGrid  ... Gauss-Chebyshev
Angular Grid (max. acc.)         AngularGrid ... Lebedev-110
Angular grid pruning method      GridPruning ... 3 (G Style)
Weight generation scheme         WeightScheme... Becke
Basis function cutoff            BFCut       ...    1.0000e-11
Integration weight cutoff        WCut        ...    1.0000e-14
Grids for H and He will be reduced by one unit

# of grid points (after initial pruning)     ...  15170 (   0.0 sec)
# of grid points (after weights+screening)   ...  14266 (   0.0 sec)
nearest neighbour list constructed           ...    0.0 sec
Grid point re-assignment to atoms done       ...    0.0 sec
Grid point division into batches done        ...    0.0 sec
Reduced shell lists constructed in    0.4 sec

Total number of grid points                  ...    14266
Total number of batches                      ...      229
Average number of points per batch           ...       62
Average number of grid points per atom       ...     1189
Average number of shells per batch           ...    66.91 (66.25%)
Average number of basis functions per batch  ...   181.47 (70.07%)
Average number of large shells per batch     ...    53.29 (79.64%)
Average number of large basis fcns per batch ...   142.47 (78.51%)
Maximum spatial batch extension              ...  36.82, 34.29, 39.26 au
Average spatial batch extension              ...   4.82,  4.83,  4.95 au

Overlap Fitting                  UseSFitting ... on
Constructing numerical overlap ... done (      0.2 sec)
Inverting numerical overlap    ... done (      0.0 sec)
Obtaining analytic overlap     ... done (      0.0 sec)
Final contraction and storage  ... done (      0.0 sec)

Time for X-Grid setup             =    1.436 sec
--------------
SCF ITERATIONS
--------------
ITER       Energy         Delta-E        Max-DP      RMS-DP      [F,P]     Damp
               ***  Starting incremental Fock matrix formation  ***
  0  -1668.2586634103   0.000000000000 0.02576905  0.00064709  0.6111036 0.8500
  1  -1668.3132621901  -0.054598779837 0.02356243  0.00073200  0.5201158 0.8500
                               ***Turning on DIIS***
  2  -1668.3608255393  -0.047563349181 0.01840077  0.00066222  0.4424362 0.8500
  3  -1668.3996174932  -0.038791953832 0.02063267  0.00052870  0.3763145 0.8500
  4  -1668.4322555007  -0.032638007540 0.02522439  0.00045147  0.3199864 0.8500
  5  -1668.4598110768  -0.027555576114 0.02340374  0.00040612  0.2720360 0.8500
  6  -1668.4837298742  -0.023918797382 0.01997912  0.00036620  0.2312542 0.8500
  7  -1668.5047028114  -0.020972937182 0.01622619  0.00033084  0.1965813 0.8500
  8  -1668.5230988326  -0.018396021207 0.01404643  0.00029230  0.1671068 0.8500
  9  -1668.5390428527  -0.015944020121 0.01266101  0.00025344  0.1420503 0.8500
 10  -1668.5528035932  -0.013760740464 0.01125361  0.00021906  0.1207501 0.8500
 11  -1668.5646765050  -0.011872911802 0.00971956  0.00019002  0.1026434 0.8500
 12  -1668.5749205844  -0.010244079432 0.00823544  0.00016536  0.0872515 0.8500
 13  -1668.5837502792  -0.008829694782 0.00698120  0.00014379  0.0741672 0.8500
 14  -1668.5913463955  -0.007596116282 0.00597227  0.00012471  0.0630447 0.8500
 15  -1668.5978699987  -0.006523603282 0.00513097  0.00010807  0.0535901 0.8500
 16  -1668.6034656992  -0.005595700409 0.00439485  0.00009376  0.0455533 0.8500
 17  -1668.6082610821  -0.004795382901 0.00374449  0.00008150  0.0387218 0.8500
 18  -1668.6123672762  -0.004106194113 0.00318166  0.00007095  0.0329148 0.8500
 19  -1668.6158805550  -0.003513278784 0.01800931  0.00041215  0.0279785 0.0000
               *** Restarting incremental Fock matrix formation ***
                                   *** Resetting DIIS ***
                      *** Initiating the SOSCF procedure ***
                           *** Shutting down DIIS ***
                      *** Re-Reading the Fockian *** 
                      *** Removing any level shift *** 
ITER      Energy       Delta-E        Grad      Rot      Max-DP    RMS-DP
 20  -1668.63905361  -0.0231730513  0.000709  0.000709  0.001194  0.000034
               *** Restarting incremental Fock matrix formation ***
 21  -1668.63628725   0.0027663529  0.000623  0.004475  0.002549  0.000055
 22  -1668.63630737  -0.0000201193  0.000431  0.008679  0.004921  0.000092
 23  -1668.63632138  -0.0000140079  0.000141  0.001172  0.001083  0.000017
 24  -1668.63632251  -0.0000011245  0.000109  0.000443  0.000286  0.000008
 25  -1668.63632323  -0.0000007294  0.000033  0.000333  0.000173  0.000004
 26  -1668.63632333  -0.0000000984  0.000021  0.000469  0.000175  0.000004
 27  -1668.63632339  -0.0000000542  0.000012  0.000032  0.000027  0.000001
 28  -1668.63632337   0.0000000220  0.000003  0.000019  0.000024  0.000000
                 **** Energy Check signals convergence ****
              ***Rediagonalizing the Fockian in SOSCF/NRSCF***

               *****************************************************
               *                     SUCCESS                       *
               *           SCF CONVERGED AFTER  29 CYCLES          *
               *****************************************************

Old exchange energy                            =    -59.339178039 Eh
New exchange energy                            =    -59.342058091 Eh
Exchange energy change after final integration =     -0.002880052 Eh
Total energy after final integration           =  -1668.639203427 Eh
Final COS-X integration done in                =    23.799 sec

----------------
TOTAL SCF ENERGY
----------------

Total Energy       :        -1668.63920343 Eh          -45405.98112 eV

Components:
Nuclear Repulsion  :          702.54823973 Eh           19117.30951 eV
Electronic Energy  :        -2371.18744316 Eh          -64523.29063 eV

One Electron Energy:        -3776.50380192 Eh         -102763.89287 eV
Two Electron Energy:         1405.31635876 Eh           38240.60224 eV

Virial components:
Potential Energy   :        -3208.26446951 Eh          -87301.31453 eV
Kinetic Energy     :         1539.62526608 Eh           41895.33341 eV
Virial Ratio       :            2.08379567


DFT components:
N(Alpha)           :       45.999996973811 electrons
N(Beta)            :       45.999996973811 electrons
N(Total)           :       91.999993947622 electrons
E(X)               :      -52.704182103181 Eh       
E(C)               :       -2.638881952148 Eh       
E(XC)              :      -55.343064055329 Eh       

---------------
SCF CONVERGENCE
---------------

  Last Energy change         ...   -9.9976e-09  Tolerance :   1.0000e-08
  Last MAX-Density change    ...    6.5503e-14  Tolerance :   1.0000e-07
  Last RMS-Density change    ...    3.9441e-16  Tolerance :   5.0000e-09
  Last Orbital Gradient      ...    1.4801e-06  Tolerance :   1.0000e-05
  Last Orbital Rotation      ...    1.1875e-05  Tolerance :   1.0000e-05

             **** THE GBW FILE WAS UPDATED (PbMACl3_mp2_md2_11.orca.gbw) ****
             **** DENSITY FILE WAS UPDATED (PbMACl3_mp2_md2_11.orca.scfp.tmp) ****
             **** ENERGY FILE WAS UPDATED (PbMACl3_mp2_md2_11.orca.en.tmp) ****
----------------
ORBITAL ENERGIES
----------------

  NO   OCC          E(Eh)            E(eV) 
   0   2.0000    -102.830529     -2798.1609 
   1   2.0000    -102.821062     -2797.9033 
   2   2.0000    -102.796051     -2797.2228 
   3   2.0000     -14.907671      -405.6584 
   4   2.0000     -10.680129      -290.6211 
   5   2.0000      -9.844659      -267.8868 
   6   2.0000      -9.836525      -267.6655 
   7   2.0000      -9.812218      -267.0040 
   8   2.0000      -7.481110      -203.5714 
   9   2.0000      -7.479205      -203.5195 
  10   2.0000      -7.478651      -203.5044 
  11   2.0000      -7.472605      -203.3399 
  12   2.0000      -7.471255      -203.3032 
  13   2.0000      -7.470147      -203.2730 
  14   2.0000      -7.448681      -202.6889 
  15   2.0000      -7.446357      -202.6257 
  16   2.0000      -7.445857      -202.6121 
  17   2.0000      -5.816873      -158.2852 
  18   2.0000      -3.589821       -97.6840 
  19   2.0000      -3.587804       -97.6291 
  20   2.0000      -3.584705       -97.5448 
  21   2.0000      -1.125985       -30.6396 
  22   2.0000      -0.997850       -27.1529 
  23   2.0000      -0.990856       -26.9626 
  24   2.0000      -0.981060       -26.6960 
  25   2.0000      -0.977661       -26.6035 
  26   2.0000      -0.977341       -26.5948 
  27   2.0000      -0.944596       -25.7038 
  28   2.0000      -0.886888       -24.1334 
  29   2.0000      -0.840398       -22.8684 
  30   2.0000      -0.789269       -21.4771 
  31   2.0000      -0.650417       -17.6987 
  32   2.0000      -0.646000       -17.5786 
  33   2.0000      -0.582649       -15.8547 
  34   2.0000      -0.570921       -15.5356 
  35   2.0000      -0.502361       -13.6699 
  36   2.0000      -0.501407       -13.6440 
  37   2.0000      -0.438949       -11.9444 
  38   2.0000      -0.412930       -11.2364 
  39   2.0000      -0.383023       -10.4226 
  40   2.0000      -0.356595        -9.7035 
  41   2.0000      -0.344307        -9.3691 
  42   2.0000      -0.315640        -8.5890 
  43   2.0000      -0.304221        -8.2783 
  44   2.0000      -0.211145        -5.7456 
  45   2.0000      -0.188011        -5.1160 
  46   0.0000      -0.049094        -1.3359 
  47   0.0000      -0.011935        -0.3248 
  48   0.0000       0.013151         0.3579 
  49   0.0000       0.054708         1.4887 
  50   0.0000       0.099841         2.7168 
  51   0.0000       0.115096         3.1319 
  52   0.0000       0.123984         3.3738 
  53   0.0000       0.133369         3.6291 
  54   0.0000       0.138793         3.7767 
  55   0.0000       0.144451         3.9307 
  56   0.0000       0.145865         3.9692 
  57   0.0000       0.160923         4.3789 
  58   0.0000       0.169202         4.6042 
  59   0.0000       0.213519         5.8101 
  60   0.0000       0.227802         6.1988 
  61   0.0000       0.244283         6.6473 
  62   0.0000       0.257425         7.0049 
  63   0.0000       0.259435         7.0596 
  64   0.0000       0.274947         7.4817 
  65   0.0000       0.291575         7.9341 
  66   0.0000       0.299896         8.1606 
  67   0.0000       0.338676         9.2158 
  68   0.0000       0.349644         9.5143 
  69   0.0000       0.364763         9.9257 
  70   0.0000       0.389939        10.6108 
  71   0.0000       0.394179        10.7262 
  72   0.0000       0.409469        11.1422 
  73   0.0000       0.418974        11.4009 
  74   0.0000       0.438225        11.9247 
  75   0.0000       0.447924        12.1886 
  76   0.0000       0.452746        12.3198 
  77   0.0000       0.459954        12.5160 
  78   0.0000       0.475919        12.9504 
  79   0.0000       0.495410        13.4808 
  80   0.0000       0.504825        13.7370 
  81   0.0000       0.507793        13.8177 
  82   0.0000       0.518419        14.1069 
  83   0.0000       0.527751        14.3608 
  84   0.0000       0.541850        14.7445 
  85   0.0000       0.544797        14.8247 
  86   0.0000       0.548607        14.9284 
  87   0.0000       0.590144        16.0586 
  88   0.0000       0.598724        16.2921 
  89   0.0000       0.605212        16.4687 
  90   0.0000       0.615625        16.7520 
  91   0.0000       0.625386        17.0176 
  92   0.0000       0.637988        17.3605 
  93   0.0000       0.652064        17.7436 
  94   0.0000       0.675832        18.3903 
  95   0.0000       0.681077        18.5331 
  96   0.0000       0.691457        18.8155 
  97   0.0000       0.704038        19.1578 
  98   0.0000       0.715165        19.4606 
  99   0.0000       0.749703        20.4004 
 100   0.0000       0.774386        21.0721 
 101   0.0000       0.798449        21.7269 
 102   0.0000       0.810165        22.0457 
 103   0.0000       0.825508        22.4632 
 104   0.0000       0.833696        22.6860 
 105   0.0000       0.857056        23.3217 
 106   0.0000       0.866242        23.5716 
 107   0.0000       0.898882        24.4598 
 108   0.0000       0.904765        24.6199 
 109   0.0000       0.925354        25.1802 
 110   0.0000       0.946771        25.7630 
 111   0.0000       0.964471        26.2446 
 112   0.0000       0.986449        26.8426 
 113   0.0000       1.019591        27.7445 
 114   0.0000       1.022538        27.8247 
 115   0.0000       1.030018        28.0282 
 116   0.0000       1.060099        28.8467 
 117   0.0000       1.062997        28.9256 
 118   0.0000       1.089109        29.6362 
 119   0.0000       1.102440        29.9989 
 120   0.0000       1.149365        31.2758 
 121   0.0000       1.152750        31.3679 
 122   0.0000       1.191702        32.4279 
 123   0.0000       1.274448        34.6795 
 124   0.0000       1.314732        35.7757 
 125   0.0000       1.363454        37.1015 
 126   0.0000       1.384521        37.6747 
 127   0.0000       1.393884        37.9295 
 128   0.0000       1.443195        39.2713 
 129   0.0000       1.461493        39.7693 
 130   0.0000       1.533842        41.7380 
 131   0.0000       1.589558        43.2541 
 132   0.0000       1.599028        43.5118 
 133   0.0000       1.629250        44.3341 
 134   0.0000       1.648032        44.8452 
 135   0.0000       1.654216        45.0135 
 136   0.0000       1.748404        47.5765 
 137   0.0000       1.771067        48.1932 
 138   0.0000       1.794168        48.8218 
 139   0.0000       1.871152        50.9166 
 140   0.0000       1.880901        51.1819 
 141   0.0000       1.916959        52.1631 
 142   0.0000       1.948250        53.0146 
 143   0.0000       1.963465        53.4286 
 144   0.0000       1.971300        53.6418 
 145   0.0000       1.979587        53.8673 
 146   0.0000       2.016450        54.8704 
 147   0.0000       2.028800        55.2065 
 148   0.0000       2.035272        55.3826 
 149   0.0000       2.046787        55.6959 
 150   0.0000       2.053177        55.8698 
 151   0.0000       2.061725        56.1024 
 152   0.0000       2.071421        56.3662 
 153   0.0000       2.079149        56.5765 
 154   0.0000       2.090174        56.8765 
 155   0.0000       2.093941        56.9790 
 156   0.0000       2.115539        57.5667 
 157   0.0000       2.131838        58.0103 
 158   0.0000       2.142046        58.2880 
 159   0.0000       2.144432        58.3529 
 160   0.0000       2.157445        58.7071 
 161   0.0000       2.165280        58.9203 
 162   0.0000       2.175214        59.1906 
 163   0.0000       2.191198        59.6255 
 164   0.0000       2.200551        59.8800 
 165   0.0000       2.211719        60.1839 
 166   0.0000       2.232342        60.7451 
 167   0.0000       2.249075        61.2005 
 168   0.0000       2.266097        61.6636 
 169   0.0000       2.270744        61.7901 
 170   0.0000       2.276395        61.9438 
 171   0.0000       2.286191        62.2104 
 172   0.0000       2.305303        62.7305 
 173   0.0000       2.344389        63.7941 
 174   0.0000       2.366769        64.4031 
 175   0.0000       2.380453        64.7754 
 176   0.0000       2.391605        65.0789 
 177   0.0000       2.399545        65.2949 
 178   0.0000       2.411146        65.6106 
 179   0.0000       2.422464        65.9186 
 180   0.0000       2.429051        66.0978 
 181   0.0000       2.446001        66.5591 
 182   0.0000       2.449005        66.6408 
 183   0.0000       2.456476        66.8441 
 184   0.0000       2.464086        67.0512 
 185   0.0000       2.479133        67.4606 
 186   0.0000       2.486899        67.6720 
 187   0.0000       2.507320        68.2277 
 188   0.0000       2.532639        68.9166 
 189   0.0000       2.579002        70.1782 
 190   0.0000       2.598065        70.6969 
 191   0.0000       2.609525        71.0088 
 192   0.0000       2.641113        71.8683 
 193   0.0000       2.644027        71.9476 
 194   0.0000       2.669630        72.6443 
 195   0.0000       2.691089        73.2283 
 196   0.0000       2.718401        73.9715 
 197   0.0000       2.778727        75.6130 
 198   0.0000       2.798305        76.1458 
 199   0.0000       2.811403        76.5022 
 200   0.0000       2.819071        76.7108 
 201   0.0000       2.843370        77.3720 
 202   0.0000       2.868158        78.0465 
 203   0.0000       2.868797        78.0639 
 204   0.0000       2.917063        79.3773 
 205   0.0000       2.928584        79.6908 
 206   0.0000       2.976635        80.9983 
 207   0.0000       3.072347        83.6028 
 208   0.0000       3.109533        84.6147 
 209   0.0000       3.221206        87.6535 
 210   0.0000       3.270770        89.0022 
 211   0.0000       3.282779        89.3290 
 212   0.0000       3.312890        90.1483 
 213   0.0000       3.342350        90.9500 
 214   0.0000       3.364779        91.5603 
 215   0.0000       3.425757        93.2196 
 216   0.0000       3.440314        93.6157 
 217   0.0000       3.517933        95.7278 
 218   0.0000       3.589521        97.6758 
 219   0.0000       3.626460        98.6810 
 220   0.0000       3.641282        99.0843 
 221   0.0000       3.721856       101.2769 
 222   0.0000       3.838937       104.4628 
 223   0.0000       3.877685       105.5172 
 224   0.0000       3.993816       108.6773 
 225   0.0000       4.224590       114.9569 
 226   0.0000       4.254136       115.7609 
 227   0.0000       4.480635       121.9243 
 228   0.0000       4.594686       125.0278 
 229   0.0000       4.951291       134.7315 
 230   0.0000       4.987365       135.7131 
 231   0.0000       5.004284       136.1735 
 232   0.0000       5.018576       136.5624 
 233   0.0000       5.149115       140.1145 
 234   0.0000       5.241817       142.6371 
 235   0.0000       5.261444       143.1712 
 236   0.0000       5.387502       146.6014 
 237   0.0000       5.683144       154.6462 
 238   0.0000       5.701568       155.1476 
 239   0.0000       5.962129       162.2378 
 240   0.0000      11.087269       301.6999 
 241   0.0000      11.149868       303.4033 
 242   0.0000      11.200713       304.7869 
 243   0.0000      11.216862       305.2263 
 244   0.0000      11.228437       305.5413 
 245   0.0000      11.266041       306.5646 
 246   0.0000      11.325234       308.1753 
 247   0.0000      11.492035       312.7142 
 248   0.0000      11.565687       314.7184 
 249   0.0000      22.696891       617.6138 
 250   0.0000      25.795218       701.9236 
 251   0.0000      25.902071       704.8312 
 252   0.0000      26.106755       710.4009 
 253   0.0000      32.503635       884.4689 
 254   0.0000      35.526077       966.7137 
 255   0.0000      35.733615       972.3611 
 256   0.0000      35.759655       973.0697 
 257   0.0000      36.085517       981.9368 
 258   0.0000     123.620693      3363.8901 

                    ********************************
                    * MULLIKEN POPULATION ANALYSIS *
                    ********************************

-----------------------
MULLIKEN ATOMIC CHARGES
-----------------------
   0 C :   -0.254457
   1 N :   -0.204148
   2 H :    0.147311
   3 H :    0.147448
   4 H :    0.132097
   5 H :    0.299394
   6 H :    0.243261
   7 H :    0.235831
   8 Pb:    0.771571
   9 Cl:   -0.505254
  10 Cl:   -0.532502
  11 Cl:   -0.480551
Sum of atomic charges:   -0.0000000

--------------------------------
MULLIKEN REDUCED ORBITAL CHARGES
--------------------------------
  0 C s       :     3.267433  s :     3.267433
      pz      :     0.975958  p :     2.907889
      px      :     0.990081
      py      :     0.941850
      dz2     :     0.006584  d :     0.073065
      dxz     :     0.020215
      dyz     :     0.019181
      dx2y2   :     0.008487
      dxy     :     0.018597
      f0      :     0.000311  f :     0.006070
      f+1     :     0.000490
      f-1     :     0.000712
      f+2     :     0.000794
      f-2     :     0.002601
      f+3     :     0.000499
      f-3     :     0.000663
  1 N s       :     3.410613  s :     3.410613
      pz      :     1.259454  p :     3.728364
      px      :     1.234398
      py      :     1.234512
      dz2     :     0.008430  d :     0.062780
      dxz     :     0.012872
      dyz     :     0.012390
      dx2y2   :     0.014755
      dxy     :     0.014333
      f0      :     0.000083  f :     0.002391
      f+1     :     0.000229
      f-1     :     0.000235
      f+2     :     0.000206
      f-2     :     0.001136
      f+3     :     0.000237
      f-3     :     0.000264
  2 H s       :     0.830952  s :     0.830952
      pz      :     0.008226  p :     0.021737
      px      :     0.007632
      py      :     0.005879
  3 H s       :     0.830767  s :     0.830767
      pz      :     0.006860  p :     0.021785
      px      :     0.007579
      py      :     0.007346
  4 H s       :     0.846392  s :     0.846392
      pz      :     0.006645  p :     0.021511
      px      :     0.007330
      py      :     0.007536
  5 H s       :     0.645952  s :     0.645952
      pz      :     0.010893  p :     0.054654
      px      :     0.023521
      py      :     0.020241
  6 H s       :     0.707261  s :     0.707261
      pz      :     0.011730  p :     0.049479
      px      :     0.012007
      py      :     0.025742
  7 H s       :     0.716481  s :     0.716481
      pz      :     0.013645  p :     0.047688
      px      :     0.024768
      py      :     0.009275
  8 Pbs       :     3.897287  s :     3.897287
      pz      :     2.479029  p :     7.148572
      px      :     2.335998
      py      :     2.333545
      dz2     :     2.020577  d :    10.110527
      dxz     :     2.023579
      dyz     :     2.022281
      dx2y2   :     2.022663
      dxy     :     2.021428
      f0      :     0.020614  f :     0.072043
      f+1     :     0.011547
      f-1     :     0.008328
      f+2     :     0.014230
      f-2     :     0.008600
      f+3     :     0.004167
      f-3     :     0.004558
  9 Cls       :     5.943094  s :     5.943094
      pz      :     3.733185  p :    11.473696
      px      :     3.825787
      py      :     3.914724
      dz2     :     0.010047  d :     0.084120
      dxz     :     0.028598
      dyz     :     0.008885
      dx2y2   :     0.024658
      dxy     :     0.011931
      f0      :     0.000437  f :     0.004345
      f+1     :     0.000627
      f-1     :     0.000250
      f+2     :     0.000995
      f-2     :     0.000363
      f+3     :     0.000839
      f-3     :     0.000834
 10 Cls       :     5.940593  s :     5.940593
      pz      :     3.735919  p :    11.485011
      px      :     3.922218
      py      :     3.826874
      dz2     :     0.010706  d :     0.101514
      dxz     :     0.011932
      dyz     :     0.031787
      dx2y2   :     0.030044
      dxy     :     0.017046
      f0      :     0.000517  f :     0.005385
      f+1     :     0.000336
      f-1     :     0.000574
      f+2     :     0.001112
      f-2     :     0.000569
      f+3     :     0.001239
      f-3     :     0.001037
 11 Cls       :     5.928632  s :     5.928632
      pz      :     3.615110  p :    11.441129
      px      :     3.919074
      py      :     3.906945
      dz2     :     0.027377  d :     0.104754
      dxz     :     0.012326
      dyz     :     0.015638
      dx2y2   :     0.033165
      dxy     :     0.016248
      f0      :     0.001262  f :     0.006037
      f+1     :     0.000530
      f-1     :     0.000598
      f+2     :     0.001223
      f-2     :     0.000369
      f+3     :     0.001077
      f-3     :     0.000979


                     *******************************
                     * LOEWDIN POPULATION ANALYSIS *
                     *******************************

----------------------
LOEWDIN ATOMIC CHARGES
----------------------
   0 C :   -0.298547
   1 N :   -0.030387
   2 H :    0.121041
   3 H :    0.120688
   4 H :    0.115565
   5 H :    0.132414
   6 H :    0.123682
   7 H :    0.128865
   8 Pb:    0.092909
   9 Cl:   -0.134851
  10 Cl:   -0.164443
  11 Cl:   -0.206935

-------------------------------
LOEWDIN REDUCED ORBITAL CHARGES
-------------------------------
  0 C s       :     2.853683  s :     2.853683
      pz      :     1.038326  p :     3.095706
      px      :     1.044844
      py      :     1.012535
      dz2     :     0.028929  d :     0.312094
      dxz     :     0.082465
      dyz     :     0.083661
      dx2y2   :     0.032737
      dxy     :     0.084302
      f0      :     0.005238  f :     0.037064
      f+1     :     0.003849
      f-1     :     0.005594
      f+2     :     0.004524
      f-2     :     0.007013
      f+3     :     0.004932
      f-3     :     0.005914
  1 N s       :     3.027248  s :     3.027248
      pz      :     1.227909  p :     3.778174
      px      :     1.279488
      py      :     1.270777
      dz2     :     0.026683  d :     0.213545
      dxz     :     0.048369
      dyz     :     0.046204
      dx2y2   :     0.044487
      dxy     :     0.047803
      f0      :     0.001478  f :     0.011420
      f+1     :     0.001403
      f-1     :     0.001572
      f+2     :     0.001109
      f-2     :     0.001826
      f+3     :     0.001957
      f-3     :     0.002074
  2 H s       :     0.816687  s :     0.816687
      pz      :     0.022717  p :     0.062272
      px      :     0.021462
      py      :     0.018093
  3 H s       :     0.816941  s :     0.816941
      pz      :     0.019322  p :     0.062371
      px      :     0.022679
      py      :     0.020370
  4 H s       :     0.822954  s :     0.822954
      pz      :     0.020448  p :     0.061481
      px      :     0.020471
      py      :     0.020561
  5 H s       :     0.708425  s :     0.708425
      pz      :     0.033572  p :     0.159161
      px      :     0.070887
      py      :     0.054703
  6 H s       :     0.722628  s :     0.722628
      pz      :     0.033992  p :     0.153690
      px      :     0.038699
      py      :     0.080999
  7 H s       :     0.722895  s :     0.722895
      pz      :     0.039742  p :     0.148240
      px      :     0.078672
      py      :     0.029826
  8 Pbs       :     3.707598  s :     3.707598
      pz      :     2.680312  p :     7.529315
      px      :     2.436198
      py      :     2.412805
      dz2     :     2.119661  d :    10.467323
      dxz     :     2.113428
      dyz     :     2.091032
      dx2y2   :     2.072826
      dxy     :     2.070376
      f0      :     0.060477  f :     0.202855
      f+1     :     0.031622
      f-1     :     0.020674
      f+2     :     0.041235
      f-2     :     0.024568
      f+3     :     0.012942
      f-3     :     0.011338
  9 Cls       :     5.689223  s :     5.689223
      pz      :     3.682416  p :    11.233964
      px      :     3.765757
      py      :     3.785790
      dz2     :     0.022606  d :     0.198375
      dxz     :     0.065018
      dyz     :     0.013811
      dx2y2   :     0.077394
      dxy     :     0.019547
      f0      :     0.001511  f :     0.013290
      f+1     :     0.001586
      f-1     :     0.000662
      f+2     :     0.003416
      f-2     :     0.000871
      f+3     :     0.003222
      f-3     :     0.002022
 10 Cls       :     5.688215  s :     5.688215
      pz      :     3.673211  p :    11.204978
      px      :     3.786720
      py      :     3.745047
      dz2     :     0.025790  d :     0.253452
      dxz     :     0.021834
      dyz     :     0.078637
      dx2y2   :     0.095295
      dxy     :     0.031896
      f0      :     0.002216  f :     0.017798
      f+1     :     0.000947
      f-1     :     0.001504
      f+2     :     0.004127
      f-2     :     0.001819
      f+3     :     0.003555
      f-3     :     0.003632
 11 Cls       :     5.688667  s :     5.688667
      pz      :     3.587318  p :    11.214401
      px      :     3.826630
      py      :     3.800453
      dz2     :     0.053864  d :     0.282347
      dxz     :     0.035412
      dyz     :     0.047943
      dx2y2   :     0.113309
      dxy     :     0.031818
      f0      :     0.004147  f :     0.021521
      f+1     :     0.001454
      f-1     :     0.001586
      f+2     :     0.005077
      f-2     :     0.001020
      f+3     :     0.004356
      f-3     :     0.003880


                      *****************************
                      * MAYER POPULATION ANALYSIS *
                      *****************************

  NA   - Mulliken gross atomic population
  ZA   - Total nuclear charge
  QA   - Mulliken gross atomic charge
  VA   - Mayer's total valence
  BVA  - Mayer's bonded valence
  FA   - Mayer's free valence

  ATOM       NA         ZA         QA         VA         BVA        FA
  0 C      6.2545     6.0000    -0.2545     3.8704     3.8704    -0.0000
  1 N      7.2041     7.0000    -0.2041     3.1951     3.1951    -0.0000
  2 H      0.8527     1.0000     0.1473     0.9706     0.9706    -0.0000
  3 H      0.8526     1.0000     0.1474     0.9721     0.9721    -0.0000
  4 H      0.8679     1.0000     0.1321     0.9649     0.9649     0.0000
  5 H      0.7006     1.0000     0.2994     0.9441     0.9441     0.0000
  6 H      0.7567     1.0000     0.2433     1.0039     1.0039     0.0000
  7 H      0.7642     1.0000     0.2358     1.0160     1.0160    -0.0000
  8 Pb    21.2284    22.0000     0.7716     2.0366     2.0366     0.0000
  9 Cl    17.5053    17.0000    -0.5053     0.8182     0.8182     0.0000
 10 Cl    17.5325    17.0000    -0.5325     0.7851     0.7851     0.0000
 11 Cl    17.4806    17.0000    -0.4806     0.7819     0.7819    -0.0000

  Mayer bond orders larger than 0.1
B(  0-C ,  1-N ) :   0.9256 B(  0-C ,  2-H ) :   0.9711 B(  0-C ,  3-H ) :   0.9696 
B(  0-C ,  4-H ) :   0.9719 B(  1-N ,  5-H ) :   0.8168 B(  1-N ,  6-H ) :   0.8028 
B(  1-N ,  7-H ) :   0.8002 B(  5-H , 11-Cl) :   0.1390 B(  6-H ,  9-Cl) :   0.1715 
B(  7-H , 10-Cl) :   0.1787 B(  8-Pb,  9-Cl) :   0.6957 B(  8-Pb, 10-Cl) :   0.6380 
B(  8-Pb, 11-Cl) :   0.6789 

-------
TIMINGS
-------

Total SCF time: 0 days 0 hours 7 min 34 sec 

Total time                  ....     454.159 sec
Sum of individual times     ....     429.214 sec  ( 94.5%)

Fock matrix formation       ....     422.933 sec  ( 93.1%)
  Coulomb formation         ....     327.174 sec  ( 77.4% of F)
  Split-RI-J                ....      27.648 sec  (  6.5% of F)
  Chain of spheres X        ....     323.197 sec  ( 76.4% of F)
  COS-X 1 center corr.      ....       0.000 sec  (  0.0% of F)
  XC integration            ....      95.810 sec  ( 22.7% of F)
    Basis function eval.    ....      41.920 sec  ( 43.8% of XC)
    Density eval.           ....      21.321 sec  ( 22.3% of XC)
    XC-Functional eval.     ....       4.698 sec  (  4.9% of XC)
    XC-Potential eval.      ....      26.184 sec  ( 27.3% of XC)
Diagonalization             ....       0.635 sec  (  0.1%)
Density matrix formation    ....       0.048 sec  (  0.0%)
Population analysis         ....       0.070 sec  (  0.0%)
Initial guess               ....       0.117 sec  (  0.0%)
Orbital Transformation      ....       0.000 sec  (  0.0%)
Orbital Orthonormalization  ....       0.114 sec  (  0.0%)
DIIS solution               ....       0.160 sec  (  0.0%)
SOSCF solution              ....       0.126 sec  (  0.0%)
Grid generation             ....       5.125 sec  (  1.1%)

------------------------------------------------------------------------------
                              ORCA MP2 CALCULATION
------------------------------------------------------------------------------


----------------------
RI-MP2 ENERGY+GRADIENT
----------------------
Dimension of the basis                    ...  259
Memory devoted to MP2                     ... 1000 MB   
Data format for buffers                   ... DOUBLE
Compression type for matrix containers    ... UNCOMPRESSED
Overall scaling of the MP2 energy         ...   2.700e-01 Eh
Calculating two index integrals           ... done (    0.013 sec)
Cholesky decomposition of the V-matrix    ... done
Cholesky decomposition of V**-1           ... done (    0.029 sec)

-----------------
RI-TRANSFORMATION (AUX index driven)
-----------------

Dimension of the orbital-basis         ... 259
Dimension of the aux-basis             ... 493
Transformation of internal MOs         ...    0-  45
Transformation of internal/external MOs...    0-  45 to   46- 258
Number Format for Storage              ... Double (8 Byte)
Integral mode                          ... Direct

First Phase: integral generation and transformation of MO indices
  Aux angular momentum 0               ... done (    0.594 sec)
  Aux angular momentum 1               ... done (    0.457 sec)
  Aux angular momentum 2               ... done (    0.519 sec)
  Aux angular momentum 3               ... done (    0.286 sec)
  Aux angular momentum 4               ... done (    0.245 sec)
Closing buffer VIJ ( 0.00 GB; CompressionRatio= 1.95)
Closing buffer VIA ( 0.04 GB; CompressionRatio= 1.00)
  Phase 1 completed in     2.203 sec
Second Phase: sorting and transformation of aux index

IJ-Transformation
Memory available                       ... 990 MB 
Max. # MO pairs treated in a batch     ... 46    
# of internal orbitals                 ... 46
# batches for internal orbitals        ... 1
Closing buffer IJV ( 0.00 GB; CompressionRatio= 1.00)
(ij|v) transformation done in     0.102 sec

IA-Transformation
Memory available                       ... 990 MB 
Max. # MO pairs treated in a batch     ... 46    
# of internal orbitals                 ... 46
# batches for internal orbitals        ... 1
Closing buffer IAV ( 0.04 GB; CompressionRatio= 1.00)
(ia|v) transformation done in     0.369 sec

  Phase 2 completed in     0.493 sec
RI-Integral transformation completed in     2.696 sec
Opening buffers                              ... done

Starting loop over batches of integrals:

Operator 0  - window                       ... (  0- 45)x( 46-258)
Operator 0  - Memory available             ...  1000 MB
Operator 0  - Memory needed per MO         ...   1.6 MB
Operator 0  - Number of orbitals per batch ... 46
Operator 0  - Number of batches            ... 1

OPERATOR  0   PASS   0:  MOs     0 ...   45
  Reading integrals       ... ok
  Internal MO   2
  Internal MO   5
  Internal MO   8
  Internal MO  11
  Internal MO  14
  Internal MO  17
  Internal MO  20
  Internal MO  23
  Internal MO  26
  Internal MO  29
  Internal MO  32
  Internal MO  35
  Internal MO  38
  Internal MO  41
  Internal MO  44
Closing buffer GIPV ( 0.04 GB; CompressionRatio= 1.00)
Time spent in pair loops =    44.698 sec

-----------------------------------------------
 RI-MP2 CORRELATION ENERGY:     -0.606191181 Eh
-----------------------------------------------


---------------------
MP2 DENSITY FORMATION
---------------------

Completing the external part of the density      ... done
Storing the unrelaxed density                    ... done

Calculating the xc-kernel                        ... done
Calculating G(D)                                 ... done
Completing the Lagrangian                        ... done
Solving the Z-vector equations                   ... 

------------------------------------------------------------------------------
                           ORCA CP-SCF CALCULATION
------------------------------------------------------------------------------

Input orbitals are from        ... PbMACl3_mp2_md2_11.orca.gbw
Input Perturbation             ... PbMACl3_mp2_md2_11.orca.pin.tmp
Wavefunction output            ... PbMACl3_mp2_md2_11.orca.pout.tmp
Perturbation mode              ... Real perturbation
Solver                         ... DIIS
   MaxDIIS                     ... 20
   Levelshift                  ...    3.000e-01 Eh
Max. number of iterations      ... 128
Convergence tolerance          ... 1.000e-08
Integral handling              ... Direct
COSX GridX                     ... 1
Number of perturbations        ... 1
Number of operators            ... 1
Orbital ranges used for CP-SCF:
 Operator 0:  Orbitals   0... 45  to  46...258
DFT calculation                         ... on
Exchange functional (SCF)               ... B88
Exchange functional (CP-SCF)            ... B88
   X-Alpha parameter    XAlpha (SCF)    ...  0.666667
   X-Alpha parameter    XAlpha (CP-SCF) ...  0.666667
   Becke's b parameter  XBeta (SCF)     ...  0.004200
   Becke's b parameter  XBeta (CP-SCF)  ...  0.004200
Correlation functional (SCF)            ... LYP
Correlation functional (CP-SCF)         ... LYP
 LDA part of GGA corr.  LDAOpt (SCF)    ... VWN-3
 LDA part of GGA corr.  LDAOpt (CP-SCF) ... VWN-3
Hybrid DFT                              ... on
   Exchange mixing (SCF)                ...  0.530
   Exchange mixing (CP-SCF)             ...  0.530
   GGA exch. scaling(SCF)               ...  0.470
   GGA exch. scaling (CP-SCF)           ...  0.470
   GGA corr. scaling (SCF)              ...  0.730
   GGA corr. scaling (CP-SCF)           ...  0.730
The RIJCOSX approximation is active
Variables per vector in CP-SCF ... 9798
Number of vectors sought       ... 1
Calculating the xc-kernel      ... done

Solving the CP-SCF equations by a DIIS algorithm

-----------------
CP-SCF ITERATIONS
-----------------
  Iteration   0: MaxR=  0.104795415
  Iteration   1: MaxR=  0.049449194
  Iteration   2: MaxR=  0.014392713
  Iteration   3: MaxR=  0.007074868
  Iteration   4: MaxR=  0.003724256
  Iteration   5: MaxR=  0.002393051
  Iteration   6: MaxR=  0.001598112
  Iteration   7: MaxR=  0.001066455
  Iteration   8: MaxR=  0.000623096
  Iteration   9: MaxR=  0.000387228
  Iteration  10: MaxR=  0.000271057
  Iteration  11: MaxR=  0.000184957
  Iteration  12: MaxR=  0.000112544
  Iteration  13: MaxR=  0.000059680
  Iteration  14: MaxR=  0.000035300
  Iteration  15: MaxR=  0.000023143
  Iteration  16: MaxR=  0.000013074
  Iteration  17: MaxR=  0.000006333
  Iteration  18: MaxR=  0.000003341
  Iteration  19: MaxR=  0.000001941
  Iteration  20: MaxR=  0.000001169
  Iteration  21: MaxR=  0.000000505
  Iteration  22: MaxR=  0.000000225
  Iteration  23: MaxR=  0.000000122
  Iteration  24: MaxR=  0.000000059
  Iteration  25: MaxR=  0.000000026
  Iteration  26: MaxR=  0.000000013
  Iteration  27: MaxR=  0.000000006
                              *** THE CP-SCF HAS CONVERGED *** 
done
Finalizing the relaxed density                   ... done
Transforming P to the AO basis                   ... done
Storing the relaxed density                      ... done

------------------------------------
ENERGY WEIGHTED DENSITY FINALIZATION
------------------------------------

Gathering the parts of the W-matrix              ... done
Forming the Z-density                            ... done
Transforming Z to the AO basis                   ... done
Calculating G(Z)                                 ... done
Finalizing the W-matrix                          ... done
Transforming W to the AO basis and storing       ... done
Entering the RIJONX and RIJCOSX sections
Starting the three-index derivative integrals:
Operator 0  - Memory available             ...  1000 MB
Operator 0  - Memory needed per MO         ...   1.0 MB
Operator 0  - Number of orbitals per batch ... 46
Operator 0  - Number of batches            ... 1

OPERATOR  0   PASS   0:  MOs     0 ...   45

----------------------------------
MP2 DERIVATIVE INTEGRAL GENERATION
----------------------------------


Input Correlated Electron Density   ... PbMACl3_mp2_md2_11.orca.pmp2re
Input Energy Weighted Density       ... PbMACl3_mp2_md2_11.orca.wmp2.tmp
Input SCF Electron Density          ... PbMACl3_mp2_md2_11.orca.scfp.tmp

One-Electron Terms    ...
  ECP gradient                                           ... One-Electron Terms done

-----------------------------------------------------------
MP2 COSX Grid Generation
-----------------------------------------------------------

General Integration Accuracy     IntAcc      ...  4.340
Radial Grid Type                 RadialGrid  ... Gauss-Chebyshev
Angular Grid (max. acc.)         AngularGrid ... Lebedev-302
Angular grid pruning method      GridPruning ... 3 (G Style)
Weight generation scheme         WeightScheme... Becke
Basis function cutoff            BFCut       ...    1.0000e-11
Integration weight cutoff        WCut        ...    1.0000e-14
Grids for H and He will be reduced by one unit

# of grid points (after initial pruning)     ...  57718 (   0.0 sec)
# of grid points (after weights+screening)   ...  53869 (   0.1 sec)
nearest neighbour list constructed           ...    0.0 sec
Grid point re-assignment to atoms done       ...    0.0 sec
Grid point division into batches done        ...    0.2 sec
Reduced shell lists constructed in    1.5 sec

Total number of grid points                  ...    53869
Total number of batches                      ...      846
Average number of points per batch           ...       63
Average number of grid points per atom       ...     4489
Average number of shells per batch           ...    61.08 (60.47%)
Average number of basis functions per batch  ...   164.96 (63.69%)
Average number of large shells per batch     ...    47.76 (78.20%)
Average number of large basis fcns per batch ...   126.56 (76.72%)
Maximum spatial batch extension              ...  36.77, 32.84, 47.00 au
Average spatial batch extension              ...   3.09,  3.06,  3.08 au

Overlap Fitting                  UseSFitting ... on
Two electron COSX terms .... 
Integration Timings:
Total Time                  =    97.3 sec
Basis fcn evaluation        =     0.7 sec
Density evaluation          =     1.0 sec
Integral evaluation         =    93.6 sec
K(P) evaluation             =     0.8 sec
                          .... COSX two electron terms done
COSX two-electron contribution to the gradient
     0:    -0.014934    -0.016372    -0.015631
     1:    -0.004517     0.019894     0.051407
     2:     0.098472    -0.080410     0.106689
     3:    -0.101659     0.096163     0.088793
     4:     0.092959     0.096068    -0.095540
     5:    -0.110367    -0.118509     0.090465
     6:     0.088243    -0.099740    -0.117459
     7:    -0.095825     0.065994    -0.138131
     8:    -0.020649    -0.027125    -0.165133
     9:    -0.050273     0.032543     0.099350
    10:     0.057677    -0.056610     0.104915
    11:     0.060865     0.088416    -0.010034
Exchange-correlation gradient    ... done
Dispersion correction            ... 
Entering the calculation of the dispersion correction...

Checking the input atom types...

Done
done

                *********************************************
                * UNRELAXED MP2 DENSITY POPULATION ANALYSIS *
                *********************************************

------------------------------------------------------------------------------
                           ORCA POPULATION ANALYSIS
------------------------------------------------------------------------------
Input electron density              ... PbMACl3_mp2_md2_11.orca.pmp2ur
BaseName (.gbw .S,...)              ... PbMACl3_mp2_md2_11.orca

                    ********************************
                    * MULLIKEN POPULATION ANALYSIS *
                    ********************************

-----------------------
MULLIKEN ATOMIC CHARGES
-----------------------
   0 C :   -0.258824
   1 N :   -0.203231
   2 H :    0.148237
   3 H :    0.148331
   4 H :    0.133222
   5 H :    0.297352
   6 H :    0.241145
   7 H :    0.233415
   8 Pb:    0.754084
   9 Cl:   -0.497439
  10 Cl:   -0.524144
  11 Cl:   -0.472149
Sum of atomic charges:   -0.0000000

--------------------------------
MULLIKEN REDUCED ORBITAL CHARGES
--------------------------------
  0 C s       :     3.266128  s :     3.266128
      pz      :     0.974568  p :     2.903654
      px      :     0.988451
      py      :     0.940635
      dz2     :     0.008637  d :     0.081824
      dxz     :     0.021822
      dyz     :     0.020693
      dx2y2   :     0.010507
      dxy     :     0.020164
      f0      :     0.000470  f :     0.007218
      f+1     :     0.000665
      f-1     :     0.000884
      f+2     :     0.000976
      f-2     :     0.002728
      f+3     :     0.000666
      f-3     :     0.000829
  1 N s       :     3.408397  s :     3.408397
      pz      :     1.255741  p :     3.716900
      px      :     1.230509
      py      :     1.230650
      dz2     :     0.010844  d :     0.074452
      dxz     :     0.015097
      dyz     :     0.014612
      dx2y2   :     0.017282
      dxy     :     0.016618
      f0      :     0.000233  f :     0.003481
      f+1     :     0.000385
      f-1     :     0.000394
      f+2     :     0.000368
      f-2     :     0.001279
      f+3     :     0.000396
      f-3     :     0.000426
  2 H s       :     0.828990  s :     0.828990
      pz      :     0.008559  p :     0.022773
      px      :     0.007972
      py      :     0.006242
  3 H s       :     0.828848  s :     0.828848
      pz      :     0.007204  p :     0.022821
      px      :     0.007927
      py      :     0.007690
  4 H s       :     0.844213  s :     0.844213
      pz      :     0.007005  p :     0.022565
      px      :     0.007676
      py      :     0.007883
  5 H s       :     0.647195  s :     0.647195
      pz      :     0.011135  p :     0.055454
      px      :     0.023797
      py      :     0.020522
  6 H s       :     0.708681  s :     0.708681
      pz      :     0.011982  p :     0.050175
      px      :     0.012258
      py      :     0.025935
  7 H s       :     0.718186  s :     0.718186
      pz      :     0.013857  p :     0.048399
      px      :     0.024965
      py      :     0.009576
  8 Pbs       :     3.879990  s :     3.879990
      pz      :     2.483703  p :     7.175296
      px      :     2.346721
      py      :     2.344872
      dz2     :     2.015254  d :    10.082796
      dxz     :     2.018098
      dyz     :     2.016808
      dx2y2   :     2.016933
      dxy     :     2.015703
      f0      :     0.025497  f :     0.107834
      f+1     :     0.016733
      f-1     :     0.013591
      f+2     :     0.019259
      f-2     :     0.013769
      f+3     :     0.009266
      f-3     :     0.009720
  9 Cls       :     5.937997  s :     5.937997
      pz      :     3.717917  p :    11.426073
      px      :     3.809971
      py      :     3.898185
      dz2     :     0.018317  d :     0.125832
      dxz     :     0.036634
      dyz     :     0.017378
      dx2y2   :     0.032873
      dxy     :     0.020630
      f0      :     0.000873  f :     0.007537
      f+1     :     0.001085
      f-1     :     0.000682
      f+2     :     0.001454
      f-2     :     0.000823
      f+3     :     0.001308
      f-3     :     0.001312
 10 Cls       :     5.935397  s :     5.935397
      pz      :     3.720285  p :    11.436498
      px      :     3.905410
      py      :     3.810803
      dz2     :     0.019046  d :     0.143570
      dxz     :     0.020529
      dyz     :     0.039918
      dx2y2   :     0.038284
      dxy     :     0.025793
      f0      :     0.000959  f :     0.008679
      f+1     :     0.000782
      f-1     :     0.001043
      f+2     :     0.001590
      f-2     :     0.001044
      f+3     :     0.001732
      f-3     :     0.001528
 11 Cls       :     5.923418  s :     5.923418
      pz      :     3.599646  p :    11.392606
      px      :     3.902550
      py      :     3.890410
      dz2     :     0.035315  d :     0.146758
      dxz     :     0.020781
      dyz     :     0.024061
      dx2y2   :     0.041507
      dxy     :     0.025094
      f0      :     0.001723  f :     0.009367
      f+1     :     0.001009
      f-1     :     0.001086
      f+2     :     0.001687
      f-2     :     0.000835
      f+3     :     0.001561
      f-3     :     0.001467


                     *******************************
                     * LOEWDIN POPULATION ANALYSIS *
                     *******************************

----------------------
LOEWDIN ATOMIC CHARGES
----------------------
   0 C :   -0.301798
   1 N :   -0.030581
   2 H :    0.121727
   3 H :    0.121355
   4 H :    0.116283
   5 H :    0.131497
   6 H :    0.122635
   7 H :    0.127628
   8 Pb:    0.080026
   9 Cl:   -0.129739
  10 Cl:   -0.158697
  11 Cl:   -0.200336

-------------------------------
LOEWDIN REDUCED ORBITAL CHARGES
-------------------------------
  0 C s       :     2.853136  s :     2.853136
      pz      :     1.035883  p :     3.088454
      px      :     1.042338
      py      :     1.010233
      dz2     :     0.030780  d :     0.321343
      dxz     :     0.084330
      dyz     :     0.085494
      dx2y2   :     0.034567
      dxy     :     0.086172
      f0      :     0.005472  f :     0.038864
      f+1     :     0.004067
      f-1     :     0.005807
      f+2     :     0.004738
      f-2     :     0.007486
      f+3     :     0.005167
      f-3     :     0.006127
  1 N s       :     3.026470  s :     3.026470
      pz      :     1.223966  p :     3.765287
      px      :     1.275048
      py      :     1.266273
      dz2     :     0.028788  d :     0.225932
      dxz     :     0.051052
      dyz     :     0.048897
      dx2y2   :     0.046618
      dxy     :     0.050577
      f0      :     0.001673  f :     0.012892
      f+1     :     0.001591
      f-1     :     0.001756
      f+2     :     0.001302
      f-2     :     0.002140
      f+3     :     0.002160
      f-3     :     0.002270
  2 H s       :     0.814107  s :     0.814107
      pz      :     0.023388  p :     0.064166
      px      :     0.022103
      py      :     0.018675
  3 H s       :     0.814381  s :     0.814381
      pz      :     0.019919  p :     0.064264
      px      :     0.023337
      py      :     0.021008
  4 H s       :     0.820302  s :     0.820302
      pz      :     0.021096  p :     0.063415
      px      :     0.021102
      py      :     0.021217
  5 H s       :     0.707617  s :     0.707617
      pz      :     0.034158  p :     0.160886
      px      :     0.071360
      py      :     0.055368
  6 H s       :     0.722113  s :     0.722113
      pz      :     0.034638  p :     0.155252
      px      :     0.039300
      py      :     0.081315
  7 H s       :     0.722484  s :     0.722484
      pz      :     0.040441  p :     0.149888
      px      :     0.079042
      py      :     0.030405
  8 Pbs       :     3.691721  s :     3.691721
      pz      :     2.682802  p :     7.551687
      px      :     2.445717
      py      :     2.423168
      dz2     :     2.113812  d :    10.438006
      dxz     :     2.107549
      dyz     :     2.085248
      dx2y2   :     2.066921
      dxy     :     2.064476
      f0      :     0.065232  f :     0.238561
      f+1     :     0.036805
      f-1     :     0.025956
      f+2     :     0.046251
      f-2     :     0.029731
      f+3     :     0.018068
      f-3     :     0.016517
  9 Cls       :     5.684372  s :     5.684372
      pz      :     3.667767  p :    11.189354
      px      :     3.751095
      py      :     3.770492
      dz2     :     0.030726  d :     0.239406
      dxz     :     0.073031
      dyz     :     0.022300
      dx2y2   :     0.085150
      dxy     :     0.028198
      f0      :     0.001964  f :     0.016608
      f+1     :     0.002070
      f-1     :     0.001101
      f+2     :     0.003905
      f-2     :     0.001348
      f+3     :     0.003707
      f-3     :     0.002514
 10 Cls       :     5.683140  s :     5.683140
      pz      :     3.658381  p :    11.160164
      px      :     3.771362
      py      :     3.730421
      dz2     :     0.033947  d :     0.294184
      dxz     :     0.030362
      dyz     :     0.086510
      dx2y2   :     0.102870
      dxy     :     0.040494
      f0      :     0.002674  f :     0.021209
      f+1     :     0.001400
      f-1     :     0.001994
      f+2     :     0.004628
      f-2     :     0.002315
      f+3     :     0.004059
      f-3     :     0.004139
 11 Cls       :     5.683432  s :     5.683432
      pz      :     3.572934  p :    11.169140
      px      :     3.811090
      py      :     3.785117
      dz2     :     0.061989  d :     0.322791
      dxz     :     0.043538
      dyz     :     0.055895
      dx2y2   :     0.120832
      dxy     :     0.040537
      f0      :     0.004660  f :     0.024972
      f+1     :     0.001953
      f-1     :     0.002089
      f+2     :     0.005541
      f-2     :     0.001498
      f+3     :     0.004854
      f-3     :     0.004378


                      *****************************
                      * MAYER POPULATION ANALYSIS *
                      *****************************

  NA   - Mulliken gross atomic population
  ZA   - Total nuclear charge
  QA   - Mulliken gross atomic charge
  VA   - Mayer's total valence
  BVA  - Mayer's bonded valence
  FA   - Mayer's free valence

  ATOM       NA         ZA         QA         VA         BVA        FA
  0 C      6.2588     6.0000    -0.2588     3.9154     3.7977     0.1177
  1 N      7.2032     7.0000    -0.2032     3.2710     3.1177     0.1532
  2 H      0.8518     1.0000     0.1482     0.9735     0.9541     0.0195
  3 H      0.8517     1.0000     0.1483     0.9751     0.9555     0.0196
  4 H      0.8668     1.0000     0.1332     0.9679     0.9486     0.0193
  5 H      0.7026     1.0000     0.2974     0.9481     0.9242     0.0238
  6 H      0.7589     1.0000     0.2411     1.0078     0.9822     0.0256
  7 H      0.7666     1.0000     0.2334     1.0203     0.9936     0.0267
  8 Pb    21.2459    22.0000     0.7541     2.3416     1.9626     0.3790
  9 Cl    17.4974    17.0000    -0.4974     1.0713     0.7879     0.2834
 10 Cl    17.5241    17.0000    -0.5241     1.0441     0.7546     0.2894
 11 Cl    17.4721    17.0000    -0.4721     1.0403     0.7493     0.2910

  Mayer bond orders larger than 0.1
B(  0-C ,  1-N ) :   0.9012 B(  0-C ,  2-H ) :   0.9555 B(  0-C ,  3-H ) :   0.9540 
B(  0-C ,  4-H ) :   0.9563 B(  1-N ,  5-H ) :   0.7996 B(  1-N ,  6-H ) :   0.7861 
B(  1-N ,  7-H ) :   0.7834 B(  5-H , 11-Cl) :   0.1358 B(  6-H ,  9-Cl) :   0.1681 
B(  7-H , 10-Cl) :   0.1750 B(  8-Pb,  9-Cl) :   0.6715 B(  8-Pb, 10-Cl) :   0.6149 
B(  8-Pb, 11-Cl) :   0.6525 


                *******************************************
                * RELAXED MP2 DENSITY POPULATION ANALYSIS *
                *******************************************

------------------------------------------------------------------------------
                           ORCA POPULATION ANALYSIS
------------------------------------------------------------------------------
Input electron density              ... PbMACl3_mp2_md2_11.orca.pmp2re
BaseName (.gbw .S,...)              ... PbMACl3_mp2_md2_11.orca

                    ********************************
                    * MULLIKEN POPULATION ANALYSIS *
                    ********************************

-----------------------
MULLIKEN ATOMIC CHARGES
-----------------------
   0 C :   -0.276345
   1 N :   -0.198763
   2 H :    0.151112
   3 H :    0.150798
   4 H :    0.138499
   5 H :    0.284972
   6 H :    0.231580
   7 H :    0.221831
   8 Pb:    0.695718
   9 Cl:   -0.467571
  10 Cl:   -0.490844
  11 Cl:   -0.440987
Sum of atomic charges:   -0.0000000

--------------------------------
MULLIKEN REDUCED ORBITAL CHARGES
--------------------------------
  0 C s       :     3.267963  s :     3.267963
      pz      :     0.981647  p :     2.923509
      px      :     0.994456
      py      :     0.947406
      dz2     :     0.008861  d :     0.077800
      dxz     :     0.020355
      dyz     :     0.019182
      dx2y2   :     0.010662
      dxy     :     0.018740
      f0      :     0.000454  f :     0.007073
      f+1     :     0.000655
      f-1     :     0.000868
      f+2     :     0.000971
      f-2     :     0.002647
      f+3     :     0.000657
      f-3     :     0.000821
  1 N s       :     3.411159  s :     3.411159
      pz      :     1.252062  p :     3.710530
      px      :     1.229236
      py      :     1.229232
      dz2     :     0.011026  d :     0.073659
      dxz     :     0.014585
      dyz     :     0.014070
      dx2y2   :     0.017921
      dxy     :     0.016057
      f0      :     0.000231  f :     0.003415
      f+1     :     0.000380
      f-1     :     0.000393
      f+2     :     0.000367
      f-2     :     0.001228
      f+3     :     0.000390
      f-3     :     0.000426
  2 H s       :     0.826460  s :     0.826460
      pz      :     0.008390  p :     0.022428
      px      :     0.007849
      py      :     0.006188
  3 H s       :     0.826723  s :     0.826723
      pz      :     0.007115  p :     0.022479
      px      :     0.007780
      py      :     0.007585
  4 H s       :     0.839247  s :     0.839247
      pz      :     0.006910  p :     0.022254
      px      :     0.007573
      py      :     0.007770
  5 H s       :     0.660048  s :     0.660048
      pz      :     0.011124  p :     0.054980
      px      :     0.023527
      py      :     0.020329
  6 H s       :     0.718681  s :     0.718681
      pz      :     0.011948  p :     0.049739
      px      :     0.012240
      py      :     0.025551
  7 H s       :     0.730172  s :     0.730172
      pz      :     0.013724  p :     0.047997
      px      :     0.024619
      py      :     0.009655
  8 Pbs       :     3.897249  s :     3.897249
      pz      :     2.470449  p :     7.221564
      px      :     2.375267
      py      :     2.375848
      dz2     :     2.015274  d :    10.079941
      dxz     :     2.016801
      dyz     :     2.015852
      dx2y2   :     2.015793
      dxy     :     2.016220
      f0      :     0.024387  f :     0.105528
      f+1     :     0.016549
      f-1     :     0.013562
      f+2     :     0.018694
      f-2     :     0.013564
      f+3     :     0.009125
      f-3     :     0.009647
  9 Cls       :     5.939312  s :     5.939312
      pz      :     3.706445  p :    11.390995
      px      :     3.799795
      py      :     3.884755
      dz2     :     0.018957  d :     0.129696
      dxz     :     0.036958
      dyz     :     0.017846
      dx2y2   :     0.034478
      dxy     :     0.021457
      f0      :     0.000872  f :     0.007568
      f+1     :     0.001076
      f-1     :     0.000688
      f+2     :     0.001459
      f-2     :     0.000830
      f+3     :     0.001313
      f-3     :     0.001329
 10 Cls       :     5.936882  s :     5.936882
      pz      :     3.707057  p :    11.396690
      px      :     3.891996
      py      :     3.797637
      dz2     :     0.019803  d :     0.148544
      dxz     :     0.021095
      dyz     :     0.040560
      dx2y2   :     0.040117
      dxy     :     0.026968
      f0      :     0.000957  f :     0.008728
      f+1     :     0.000786
      f-1     :     0.001038
      f+2     :     0.001600
      f-2     :     0.001053
      f+3     :     0.001748
      f-3     :     0.001545
 11 Cls       :     5.925020  s :     5.925020
      pz      :     3.582222  p :    11.353864
      px      :     3.891970
      py      :     3.879672
      dz2     :     0.035298  d :     0.152679
      dxz     :     0.022025
      dyz     :     0.025479
      dx2y2   :     0.043599
      dxy     :     0.026278
      f0      :     0.001713  f :     0.009424
      f+1     :     0.001024
      f-1     :     0.001101
      f+2     :     0.001699
      f-2     :     0.000843
      f+3     :     0.001569
      f-3     :     0.001475


                     *******************************
                     * LOEWDIN POPULATION ANALYSIS *
                     *******************************

----------------------
LOEWDIN ATOMIC CHARGES
----------------------
   0 C :   -0.312761
   1 N :   -0.034967
   2 H :    0.123466
   3 H :    0.122948
   4 H :    0.118909
   5 H :    0.127908
   6 H :    0.119623
   7 H :    0.123773
   8 Pb:    0.044730
   9 Cl:   -0.112756
  10 Cl:   -0.139028
  11 Cl:   -0.181847

-------------------------------
LOEWDIN REDUCED ORBITAL CHARGES
-------------------------------
  0 C s       :     2.854830  s :     2.854830
      pz      :     1.040313  p :     3.101837
      px      :     1.046776
      py      :     1.014747
      dz2     :     0.030959  d :     0.317435
      dxz     :     0.082882
      dyz     :     0.083855
      dx2y2   :     0.034914
      dxy     :     0.084825
      f0      :     0.005464  f :     0.038658
      f+1     :     0.004033
      f-1     :     0.005769
      f+2     :     0.004700
      f-2     :     0.007413
      f+3     :     0.005153
      f-3     :     0.006127
  1 N s       :     3.029587  s :     3.029587
      pz      :     1.224630  p :     3.765034
      px      :     1.274689
      py      :     1.265715
      dz2     :     0.028971  d :     0.227402
      dxz     :     0.051243
      dyz     :     0.049102
      dx2y2   :     0.047218
      dxy     :     0.050868
      f0      :     0.001700  f :     0.012944
      f+1     :     0.001581
      f-1     :     0.001754
      f+2     :     0.001303
      f-2     :     0.002156
      f+3     :     0.002167
      f-3     :     0.002282
  2 H s       :     0.812209  s :     0.812209
      pz      :     0.023405  p :     0.064325
      px      :     0.022155
      py      :     0.018765
  3 H s       :     0.812624  s :     0.812624
      pz      :     0.019988  p :     0.064428
      px      :     0.023353
      py      :     0.021087
  4 H s       :     0.817444  s :     0.817444
      pz      :     0.021169  p :     0.063647
      px      :     0.021174
      py      :     0.021304
  5 H s       :     0.711293  s :     0.711293
      pz      :     0.034265  p :     0.160799
      px      :     0.071170
      py      :     0.055364
  6 H s       :     0.724908  s :     0.724908
      pz      :     0.034927  p :     0.155468
      px      :     0.039579
      py      :     0.080963
  7 H s       :     0.725908  s :     0.725908
      pz      :     0.040734  p :     0.150318
      px      :     0.078863
      py      :     0.030721
  8 Pbs       :     3.706262  s :     3.706262
      pz      :     2.665850  p :     7.585790
      px      :     2.469962
      py      :     2.449979
      dz2     :     2.111918  d :    10.428260
      dxz     :     2.104220
      dyz     :     2.082451
      dx2y2   :     2.065171
      dxy     :     2.064501
      f0      :     0.063390  f :     0.234957
      f+1     :     0.036425
      f-1     :     0.025719
      f+2     :     0.045796
      f-2     :     0.029380
      f+3     :     0.017834
      f-3     :     0.016413
  9 Cls       :     5.689467  s :     5.689467
      pz      :     3.659322  p :    11.163432
      px      :     3.743756
      py      :     3.760354
      dz2     :     0.031163  d :     0.243217
      dxz     :     0.073655
      dyz     :     0.023219
      dx2y2   :     0.086141
      dxy     :     0.029039
      f0      :     0.001953  f :     0.016639
      f+1     :     0.002083
      f-1     :     0.001101
      f+2     :     0.003924
      f-2     :     0.001372
      f+3     :     0.003695
      f-3     :     0.002512
 10 Cls       :     5.688490  s :     5.688490
      pz      :     3.648882  p :    11.130895
      px      :     3.761174
      py      :     3.720839
      dz2     :     0.034352  d :     0.298471
      dxz     :     0.031381
      dyz     :     0.087236
      dx2y2   :     0.104006
      dxy     :     0.041496
      f0      :     0.002641  f :     0.021172
      f+1     :     0.001397
      f-1     :     0.001990
      f+2     :     0.004617
      f-2     :     0.002352
      f+3     :     0.004052
      f-3     :     0.004123
 11 Cls       :     5.687929  s :     5.687929
      pz      :     3.559676  p :    11.141352
      px      :     3.803612
      py      :     3.778064
      dz2     :     0.062868  d :     0.327566
      dxz     :     0.044517
      dyz     :     0.056994
      dx2y2   :     0.121596
      dxy     :     0.041592
      f0      :     0.004721  f :     0.025001
      f+1     :     0.001968
      f-1     :     0.002094
      f+2     :     0.005533
      f-2     :     0.001496
      f+3     :     0.004834
      f-3     :     0.004355


                      *****************************
                      * MAYER POPULATION ANALYSIS *
                      *****************************

  NA   - Mulliken gross atomic population
  ZA   - Total nuclear charge
  QA   - Mulliken gross atomic charge
  VA   - Mayer's total valence
  BVA  - Mayer's bonded valence
  FA   - Mayer's free valence

  ATOM       NA         ZA         QA         VA         BVA        FA
  0 C      6.2763     6.0000    -0.2763     3.9144     3.7971     0.1173
  1 N      7.1988     7.0000    -0.1988     3.2741     3.1214     0.1527
  2 H      0.8489     1.0000     0.1511     0.9734     0.9541     0.0193
  3 H      0.8492     1.0000     0.1508     0.9755     0.9560     0.0195
  4 H      0.8615     1.0000     0.1385     0.9670     0.9477     0.0192
  5 H      0.7150     1.0000     0.2850     0.9596     0.9361     0.0235
  6 H      0.7684     1.0000     0.2316     1.0175     0.9924     0.0251
  7 H      0.7782     1.0000     0.2218     1.0319     1.0059     0.0261
  8 Pb    21.3043    22.0000     0.6957     2.4231     2.0526     0.3704
  9 Cl    17.4676    17.0000    -0.4676     1.1441     0.8634     0.2806
 10 Cl    17.4908    17.0000    -0.4908     1.1282     0.8420     0.2861
 11 Cl    17.4410    17.0000    -0.4410     1.1273     0.8401     0.2872

  Mayer bond orders larger than 0.1
B(  0-C ,  1-N ) :   0.9064 B(  0-C ,  2-H ) :   0.9520 B(  0-C ,  3-H ) :   0.9505 
B(  0-C ,  4-H ) :   0.9532 B(  1-N ,  5-H ) :   0.7942 B(  1-N ,  6-H ) :   0.7780 
B(  1-N ,  7-H ) :   0.7736 B(  5-H , 11-Cl) :   0.1465 B(  6-H ,  9-Cl) :   0.1796 
B(  7-H , 10-Cl) :   0.1882 B(  8-Pb,  9-Cl) :   0.6980 B(  8-Pb, 10-Cl) :   0.6419 
B(  8-Pb, 11-Cl) :   0.6805 


-------
TIMINGS
-------

Total time                :  776.892 sec
Integral trafo            :    2.706 sec (  0.3%)
I/O of integrals          :    0.150 sec (  0.0%)
K(i,j) Operators          :    6.089 sec (  0.8%)
T(i,j) pair energies      :    1.114 sec (  0.1%)
V-calculation             :    0.013 sec (  0.0%)
V**(-1/2)                 :    0.029 sec (  0.0%)
Gamma(ia|P)               :    5.480 sec (  0.7%)
Gamma-Trafo               :    0.778 sec (  0.1%)
D(virtual)                :    2.405 sec (  0.3%)
D(internal)               :    3.959 sec (  0.5%)
W(virtual)                :    4.950 sec (  0.6%)
W(internal)               :   13.348 sec (  1.7%)
L(virtual)                :    6.009 sec (  0.8%)
L(internal)               :    0.202 sec (  0.0%)
G(D)                      :   15.989 sec (  2.1%)
G(Z)                      :   16.275 sec (  2.1%)
Z-Vector Solution         :  576.079 sec ( 74.2%)
Z-Vector Solution         :  576.079 sec ( 74.2%)
3-Index Derivative 
+ Separable RIJ part      :    4.631 sec (  0.6%)
2-Index Derivative 
+ Separable RIJ part      :    0.027 sec (  0.0%)
Separable Gradient (COSX) :  115.008 sec ( 14.8%)


---------------------------------------
MP2 TOTAL ENERGY:    -1669.245394609 Eh
---------------------------------------

The final MP2 gradient
  0:  -0.00021847   0.00213277   0.00385805
  1:  -0.07600571  -0.05938523   0.00222103
  2:   0.00195800  -0.00142434   0.00248721
  3:  -0.00147648   0.00217069   0.00221072
  4:   0.00171978   0.00148251  -0.00329040
  5:  -0.02444682  -0.01800516  -0.00159615
  6:  -0.00969724  -0.01654386  -0.01802377
  7:  -0.01203812  -0.01394929  -0.01824271
  8:   0.01474610   0.00977398   0.00667194
  9:  -0.15649495   0.08897269   0.06091596
 10:   0.14836380  -0.15867789   0.09209280
 11:   0.11353002   0.16376433  -0.12965273

-----------------------------------
NORM OF THE MP2 GRADIENT:  0.400401
-----------------------------------

Entering the calculation of the dispersion correction...

Checking the input atom types...

Done


-------------------------------------------------------------------------------
                          DFT DISPERSION CORRECTION                            
                                                                               
                                DFTD3 V2.1  Rev 6                               
                          USING Becke-Johnson damping                          
-------------------------------------------------------------------------------
The B2PLYP functional is recognized
Active option DFTDOPT                   ...         4   

molecular C6(AA) [au] = 4858.121624 


            DFT-D V3
 parameters
 s6 scaling factor         :     0.6400 
 a1 scaling factor         :     0.3065 
 s8 scaling factor         :     0.9147 
 a2 scaling factor         :     5.0570 
 ad hoc parameters k1-k3   :    16.0000     1.3333    -4.0000 

 Edisp/kcal,au: -10.530044890836  -0.016780692886 
 E6   /kcal   :  -4.826477308 
 E8   /kcal   :  -5.703567582 
 % E8         :  54.164703394 

-------------------------   ----------------
Dispersion correction           -0.016780693
-------------------------   ----------------


-------------------------   --------------------
FINAL SINGLE POINT ENERGY     -1669.262175301543
-------------------------   --------------------


                            ***************************************
                            *     ORCA property calculations      *
                            ***************************************


  WARNING: The energy has been calculated at the MP2 level but the densities
           used in the property calculations are still SCF densities
           MP2 response densities have not been calculated 
           use %mp2 Density relaxed end
           or  %mp2 Density unrelaxed end

                                    ---------------------
                                    Active property flags
                                    ---------------------
   (+) Dipole Moment


------------------------------------------------------------------------------
                       ORCA ELECTRIC PROPERTIES CALCULATION
------------------------------------------------------------------------------

Dipole Moment Calculation                       ... on
Quadrupole Moment Calculation                   ... off
Polarizability Calculation                      ... off
GBWName                                         ... PbMACl3_mp2_md2_11.orca.gbw
Electron density file                           ... PbMACl3_mp2_md2_11.orca.scfp.tmp

-------------
DIPOLE MOMENT
-------------
                                X             Y             Z
Electronic contribution:    -48.78011     -68.76467    -126.52124
Nuclear contribution   :     49.97419      69.98846     124.79963
                        -----------------------------------------
Total Dipole Moment    :      1.19409       1.22379      -1.72161
                        -----------------------------------------
Magnitude (a.u.)       :      2.42640
Magnitude (Debye)      :      6.16743


                         *** MP2 UNRELAXED DENSITY ***

------------------------------------------------------------------------------
                       ORCA ELECTRIC PROPERTIES CALCULATION
------------------------------------------------------------------------------

Dipole Moment Calculation                       ... on
Quadrupole Moment Calculation                   ... off
Polarizability Calculation                      ... off
GBWName                                         ... PbMACl3_mp2_md2_11.orca.gbw
Electron density file                           ... PbMACl3_mp2_md2_11.orca.pmp2ur

-------------
DIPOLE MOMENT
-------------
                                X             Y             Z
Electronic contribution:    -48.78709     -68.76799    -126.46720
Nuclear contribution   :     49.97419      69.98846     124.79963
                        -----------------------------------------
Total Dipole Moment    :      1.18710       1.22047      -1.66757
                        -----------------------------------------
Magnitude (a.u.)       :      2.38318
Magnitude (Debye)      :      6.05756


                           *** MP2 RELAXED DENSITY ***

------------------------------------------------------------------------------
                       ORCA ELECTRIC PROPERTIES CALCULATION
------------------------------------------------------------------------------

Dipole Moment Calculation                       ... on
Quadrupole Moment Calculation                   ... off
Polarizability Calculation                      ... off
GBWName                                         ... PbMACl3_mp2_md2_11.orca.gbw
Electron density file                           ... PbMACl3_mp2_md2_11.orca.pmp2re

-------------
DIPOLE MOMENT
-------------
                                X             Y             Z
Electronic contribution:    -48.83031     -68.80777    -126.38820
Nuclear contribution   :     49.97419      69.98846     124.79963
                        -----------------------------------------
Total Dipole Moment    :      1.14388       1.18069      -1.58857
                        -----------------------------------------
Magnitude (a.u.)       :      2.28606
Magnitude (Debye)      :      5.81069


Timings for individual modules:

Sum of individual times         ...     1232.000 sec (=  20.533 min)
GTO integral calculation        ...        0.607 sec (=   0.010 min)   0.0 %
SCF iterations                  ...      454.325 sec (=   7.572 min)  36.9 %
MP2 module                      ...      777.067 sec (=  12.951 min)  63.1 %
                             ****ORCA TERMINATED NORMALLY****
TOTAL RUN TIME: 0 days 0 hours 20 minutes 32 seconds 536 msec
