
                                 *****************
                                 * O   R   C   A *
                                 *****************

           --- An Ab Initio, DFT and Semiempirical electronic structure package ---

                  #######################################################
                  #                        -***-                        #
                  #  Department of molecular theory and spectroscopy    #
                  #              Directorship: Frank Neese              #
                  # Max Planck Institute for Chemical Energy Conversion #
                  #                  D-45470 Muelheim/Ruhr              #
                  #                       Germany                       #
                  #                                                     #
                  #                  All rights reserved                #
                  #                        -***-                        #
                  #######################################################


                         Program Version 3.0.3 - RELEASE   -


 With contributions from (in alphabetic order):
   Ute Becker             : Parallelization
   Dmytro Bykov           : SCF Hessian
   Dmitry Ganyushin       : Spin-Orbit,Spin-Spin,Magnetic field MRCI
   Andreas Hansen         : Spin unrestricted coupled pair/coupled cluster methods
   Dimitrios Liakos       : Extrapolation schemes; parallel MDCI
   Robert Izsak           : Overlap fitted RIJCOSX, COSX-SCS-MP3
   Christian Kollmar      : KDIIS, OOCD, Brueckner-CCSD(T), CCSD density
   Simone Kossmann        : Meta GGA functionals, TD-DFT gradient, OOMP2, MP2 Hessian
   Taras Petrenko         : DFT Hessian,TD-DFT gradient, ASA and ECA modules, normal mode analysis, Resonance Raman, ABS, FL, XAS/XES, NRVS
   Christoph Reimann      : Effective Core Potentials
   Michael Roemelt        : Restricted open shell CIS
   Christoph Riplinger    : Improved optimizer, TS searches, QM/MM, DLPNO-CCSD
   Barbara Sandhoefer     : DKH picture change effects
   Igor Schapiro          : Molecular dynamics
   Kantharuban Sivalingam : CASSCF convergence, NEVPT2
   Boris Wezisla          : Elementary symmetry handling
   Frank Wennmohs         : Technical directorship


 We gratefully acknowledge several colleagues who have allowed us to
 interface, adapt or use parts of their codes:
   Stefan Grimme, W. Hujo, H. Kruse, T. Risthaus : VdW corrections, initial TS optimization,
                                                   DFT functionals, gCP
   Ed Valeev                                     : LibInt (2-el integral package), F12 methods
   Garnet Chan, S. Sharma, R. Olivares           : DMRG
   Ulf Ekstrom                                   : XCFun DFT Library
   Mihaly Kallay                                 : mrcc  (arbitrary order and MRCC methods)
   Andreas Klamt, Michael Diedenhofen            : otool_cosmo (COSMO solvation model)
   Frank Weinhold                                : gennbo (NPA and NBO analysis)
   Christopher J. Cramer and Donald G. Truhlar   : smd solvation model


 Your calculation uses the libint2 library for the computation of 2-el integrals
 For citations please refer to: http://libint.valeyev.net

 This ORCA versions uses:
   CBLAS   interface :  Fast vector & matrix operations
   LAPACKE interface :  Fast linear algebra routines
   SCALAPACK package :  Parallel linear algebra routines


Your calculation utilizes the basis: Ahlrichs-TZV
Cite in your paper:
H - Kr: A. Schaefer, H. Horn and R. Ahlrichs, J. Chem. Phys. 97, 2571 (1992).

The def2-TZV basis will be loaded
Cite in your paper:
 	F. Weigend, R. Ahlrichs, Phys. Chem. Chem. Phys. 2005, 7, 3297.

Your calculation utilizes the atom-pairwise dispersion correction
with the Becke-Johnson damping scheme (D3BJ)
Cite in your paper:
S.Grimme, S.Ehrlich, L.Goerigk, J Comput Chem, (2011), 32, 1456–1465 
S.Grimme, J.Antony, S.Ehrlich and H.Krieg, J.Chem.Phys., 132, (2010), 154104 
   

================================================================================
                                        WARNINGS
                       Please study these warnings very carefully!
================================================================================

WARNING: The RI method has been chosen with no auxiliary basis (AUX or GTOAUX in BASIS block)
        Standard TZV/J expansion basis used (GTOAUX=TZV_J)

Now building the actual basis set
cite the ECPs for Pb [SD(60,MDF)] as follows:
  B. Metz, H. Stoll, M. Dolg, J. Chem. Phys. 113, 2563 (2000).

ECP parameters for Pb [SD(60,MDF)] have been obtained from:
  pseudopotential library of the Stuttgart/Cologne group
  http://www.theochem.uni-stuttgart.de/pseudopotentials/

cite the ECP basis sets for Pb [DEF2-TZVP] as follows:
  F. Weigend, R. Ahlrichs; Phys. Chem. Chem. Phys. 7, 3297(2005).

ECP basis sets for Pb [DEF2-TZVP] have been obtained from:
  Turbomole basis set library
  ftp://ftp.chemie.uni-karlsruhe.de/pub/basen/



INFO   : the flag for use of LIBINT has been found!

================================================================================
                                       INPUT FILE
================================================================================
NAME = PbMACl3_mp2_md2_0.orca
|  1> ! RIJCOSX RI-B2PLYP D3BJ def2-TZVP ECP{def2-TZVP} TIGHTSCF Grid5 FinalGrid6 SlowConv MORead
|  2> %method
|  3>  RunTyp Gradient
|  4>  end
|  5> %maxcore 1000
|  6> %moinp "previous.gbw"
|  7> *xyz 0 1
|  8> C -0.394281 0.276013 -0.426662 
|  9> N -1.165380 -0.685592 -1.253010 
| 10> H 0.248796 -0.278576 0.260517 
| 11> H -1.090820 0.897444 0.140826 
| 12> H 0.215705 0.904875 -1.079130 
| 13> H -1.783150 -1.324970 -0.698370 
| 14> H -0.582260 -1.326300 -1.835140 
| 15> H -1.813140 -0.240924 -1.938260 
| 16> Pb -2.744020 -3.485210 -2.690150 
| 17> Cl -1.027100 -3.084180 -4.567750 
| 18> Cl -2.783950 1.210650 -2.838520 
| 19> Cl -4.650590 -3.437880 -0.961726 
| 20> *
| 21> 
| 22>                          ****END OF INPUT****
================================================================================

                     *******************************
                     * Energy+Gradient Calculation *
                     *******************************

---------------------------------
CARTESIAN COORDINATES (ANGSTROEM)
---------------------------------
  C     -0.394281    0.276013   -0.426662
  N     -1.165380   -0.685592   -1.253010
  H      0.248796   -0.278576    0.260517
  H     -1.090820    0.897444    0.140826
  H      0.215705    0.904875   -1.079130
  H     -1.783150   -1.324970   -0.698370
  H     -0.582260   -1.326300   -1.835140
  H     -1.813140   -0.240924   -1.938260
  Pb    -2.744020   -3.485210   -2.690150
  Cl    -1.027100   -3.084180   -4.567750
  Cl    -2.783950    1.210650   -2.838520
  Cl    -4.650590   -3.437880   -0.961726

----------------------------
CARTESIAN COORDINATES (A.U.)
----------------------------
  NO LB      ZA    FRAG    MASS        X           Y           Z
   0 C     6.0000    0    12.011         -0.745083109808605          0.521588979402006         -0.806274331751109
   1 N     7.0000    0    14.007         -2.202249041949148         -1.295581119607339         -2.367845743064668
   2 H     1.0000    0     1.008          0.470156303215072         -0.526432347483247          0.492305783230763
   3 H     1.0000    0     1.008         -2.061351061403979          1.695923380530824          0.266122572535594
   4 H     1.0000    0     1.008          0.407623375717484          1.709965935431992         -2.039260162898440
   5 H     1.0000    0     1.008         -3.369665155701680         -2.503830435661641         -1.319728040146585
   6 H     1.0000    0     1.008         -1.100311938736988         -2.506343771419756         -3.467912017404246
   7 H     1.0000    0     1.008         -3.426338042457978         -0.455280379088844         -3.662780576334205
   8 Pb   22.0000*   0   207.200  -5.185446306002593  -6.586092419203685  -5.083646759168255
   9 Cl   17.0000    0    35.453         -1.940937712150517         -5.828255547717246         -8.631796548218798
  10 Cl   17.0000    0    35.453         -5.260903070530069          2.287796944031763         -5.364025425658151
  11 Cl   17.0000    0    35.453         -8.788341461152834         -6.496651681285193         -1.817398755871550
* core charge reduced due to ECP

--------------------------------
INTERNAL COORDINATES (ANGSTROEM)
--------------------------------
 C      0   0   0   0.000000     0.000     0.000
 N      1   0   0   1.483957     0.000     0.000
 H      1   2   0   1.092397   109.099     0.000
 H      1   2   3   1.092422   109.061   240.173
 H      1   2   3   1.092367   109.305   120.114
 H      2   1   3   1.047888   114.015    60.210
 H      2   1   3   1.043749   114.711   299.789
 H      2   1   3   1.042540   114.361   179.708
 Pb     6   2   1   3.091455   105.580   190.976
 Cl     9   6   2   2.575659    98.840    15.964
 Cl     8   2   1   1.964690   157.418   353.683
 Cl     9   6   2   2.573849    77.568   206.921

---------------------------
INTERNAL COORDINATES (A.U.)
---------------------------
 C      0   0   0   0.000000     0.000     0.000
 N      1   0   0   2.804273     0.000     0.000
 H      1   2   0   2.064332   109.099     0.000
 H      1   2   3   2.064378   109.061   240.173
 H      1   2   3   2.064274   109.305   120.114
 H      2   1   3   1.980222   114.015    60.210
 H      2   1   3   1.972399   114.711   299.789
 H      2   1   3   1.970116   114.361   179.708
 Pb     6   2   1   5.842004   105.580   190.976
 Cl     9   6   2   4.867291    98.840    15.964
 Cl     8   2   1   3.712726   157.418   353.683
 Cl     9   6   2   4.863870    77.568   206.921

---------------------
BASIS SET INFORMATION
---------------------
There are 5 groups of distinct atoms

 Group   1 Type C   : 11s6p2d1f contracted to 5s3p2d1f pattern {62111/411/11/1}
 Group   2 Type N   : 11s6p2d1f contracted to 5s3p2d1f pattern {62111/411/11/1}
 Group   3 Type H   : 5s1p contracted to 3s1p pattern {311/1}
 Group   4 Type Pb  : 10s9p8d2f contracted to 6s5p3d2f pattern {421111/33111/611/11}
 Group   5 Type Cl  : 14s9p3d1f contracted to 5s5p2d1f pattern {73211/51111/21/1}

Atom   0C    basis set group =>   1
Atom   1N    basis set group =>   2
Atom   2H    basis set group =>   3
Atom   3H    basis set group =>   3
Atom   4H    basis set group =>   3
Atom   5H    basis set group =>   3
Atom   6H    basis set group =>   3
Atom   7H    basis set group =>   3
Atom   8Pb   basis set group =>   4
Atom   9Cl   basis set group =>   5
Atom  10Cl   basis set group =>   5
Atom  11Cl   basis set group =>   5
-------------------------------
AUXILIARY BASIS SET INFORMATION
-------------------------------
There are 5 groups of distinct atoms

 Group   1 Type C   : 12s5p4d2f1g contracted to 6s4p3d1f1g pattern {711111/2111/211/2/1}
 Group   2 Type N   : 12s5p4d2f1g contracted to 6s4p3d1f1g pattern {711111/2111/211/2/1}
 Group   3 Type H   : 5s2p1d contracted to 3s1p1d pattern {311/2/1}
 Group   4 Type Pb  : 31s12p8d6f3g contracted to 31s12p8d6f3g pattern {1111111111111111111111111111111/111111111111/11111111/111111/111}
 Group   5 Type Cl  : 14s5p5d2f1g contracted to 8s4p3d1f1g pattern {71111111/2111/311/2/1}

Atom   0C    basis set group =>   1
Atom   1N    basis set group =>   2
Atom   2H    basis set group =>   3
Atom   3H    basis set group =>   3
Atom   4H    basis set group =>   3
Atom   5H    basis set group =>   3
Atom   6H    basis set group =>   3
Atom   7H    basis set group =>   3
Atom   8Pb   basis set group =>   4
Atom   9Cl   basis set group =>   5
Atom  10Cl   basis set group =>   5
Atom  11Cl   basis set group =>   5

-------------------------
ECP PARAMETER INFORMATION
-------------------------

 Group 1, Type Pb ECP SD(60,MDF) (replacing 60 core electrons, lmax=5)

Atom   8Pb   ECP group =>   1


------------------------------------------------------------------------------
                           ORCA GTO INTEGRAL CALCULATION
                           -- RI-GTO INTEGRALS CHOSEN --
------------------------------------------------------------------------------

                         BASIS SET STATISTICS AND STARTUP INFO

Gaussian basis set:
 # of primitive gaussian shells          ...  186
 # of primitive gaussian functions       ...  420
 # of contracted shells                  ...  101
 # of contracted basis functions         ...  259
 Highest angular momentum                ...    3
 Maximum contraction depth               ...    7
Auxiliary gaussian basis set:
 # of primitive gaussian shells          ...  237
 # of primitive gaussian functions       ...  643
 # of contracted shells                  ...  171
 # of contracted aux-basis functions     ...  493
 Highest angular momentum                ...    4
 Maximum contraction depth               ...    7
Ratio of auxiliary to basis functions    ...  1.90
Integral package used                  ... LIBINT
 One Electron integrals                  
   ECP integrals                         ... done
 Ordering auxiliary basis shells         ... done
 Integral threshhold             Thresh  ...  2.500e-11
 Primitive cut-off               TCut    ...  2.500e-12
 Pre-screening matrix                    ... done
 Shell pair data                         ... 
 Ordering of the shell pairs             ... done (   0.001 sec) 4110 of 5151 pairs
 Determination of significant pairs      ... done (   0.000 sec)
 Creation of shell pair data             ... done (   0.002 sec)
 Storage of shell pair data              ... done (   0.001 sec)
 Shell pair data done in (   0.004 sec)
 Computing two index integrals           ... done
 Cholesky decomposition of the V-matrix  ... done


Timings:
 Total evaluation time                   ...   0.905 sec (  0.015 min)
 One electron matrix time                ...   0.473 sec (  0.008 min) = 52.3%
 Schwartz matrix evaluation time         ...   0.295 sec (  0.005 min) = 32.6%
 Two index repulsion integral time       ...   0.010 sec (  0.000 min) =  1.2%
 Cholesky decomposition of V             ...   0.065 sec (  0.001 min) =  7.2%
 Three index repulsion integral time     ...   0.000 sec (  0.000 min) =  0.0%

-------------------------------------------------------------------------------
                                 ORCA SCF
-------------------------------------------------------------------------------

------------
SCF SETTINGS
------------
Hamiltonian:
 Density Functional     Method          .... DFT(GTOs)
 Exchange Functional    Exchange        .... B88
   X-Alpha parameter    XAlpha          ....  0.666667
   Becke's b parameter  XBeta           ....  0.004200
 Correlation Functional Correlation     .... LYP
 LDA part of GGA corr.  LDAOpt          .... VWN-3
 Gradients option       PostSCFGGA      .... off
 Hybrid DFT is turned on
   Fraction HF Exchange ScalHFX         ....  0.530000
   Scaling of DF-GGA-X  ScalDFX         ....  0.470000
   Scaling of DF-GGA-C  ScalDFC         ....  0.730000
   Scaling of DF-LDA-C  ScalLDAC        ....  0.730000
   Perturbative correction              ....  0.270000
 RI-approximation to the Coulomb term is turned on
   Number of auxiliary basis functions  .... 493
   RIJ-COSX (HFX calculated with COS-X)).... on


General Settings:
 Integral files         IntName         .... PbMACl3_mp2_md2_0.orca
 Hartree-Fock type      HFTyp           .... RHF
 Total Charge           Charge          ....    0
 Multiplicity           Mult            ....    1
 Number of Electrons    NEL             ....   92
 Basis Dimension        Dim             ....  259
 Nuclear Repulsion      ENuc            ....    512.6686176527 Eh

Convergence Acceleration:
 DIIS                   CNVDIIS         .... on
   Start iteration      DIISMaxIt       ....     0
   Startup error        DIISStart       ....  0.200000
   # of expansion vecs  DIISMaxEq       ....     5
   Bias factor          DIISBfac        ....   1.050
   Max. coefficient     DIISMaxC        ....  10.000
 Newton-Raphson         CNVNR           .... off
 SOSCF                  CNVSOSCF        .... on
   Start iteration      SOSCFMaxIt      ....   150
   Startup grad/error   SOSCFStart      ....  0.001000
 Level Shifting         CNVShift        .... on
   Level shift para.    LevelShift      ....    0.2500
   Turn off err/grad.   ShiftErr        ....    0.0000
 Zerner damping         CNVZerner       .... off
 Static damping         CNVDamp         .... on
   Fraction old density DampFac         ....    0.8500
   Max. Damping (<1)    DampMax         ....    0.9800
   Min. Damping (>=0)   DampMin         ....    0.0000
   Turn off err/grad.   DampErr         ....    0.0300
 Fernandez-Rico         CNVRico         .... off

SCF Procedure:
 Maximum # iterations   MaxIter         ....   125
 SCF integral mode      SCFMode         .... Direct
   Integral package                     .... LIBINT
 Reset frequeny         DirectResetFreq ....    20
 Integral Threshold     Thresh          ....  2.500e-11 Eh
 Primitive CutOff       TCut            ....  2.500e-12 Eh

Convergence Tolerance:
 Convergence Check Mode ConvCheckMode   .... Total+1el-Energy
 Energy Change          TolE            ....  1.000e-08 Eh
 1-El. energy change                    ....  1.000e-05 Eh
 Orbital Gradient       TolG            ....  1.000e-05
 Orbital Rotation angle TolX            ....  1.000e-05
 DIIS Error             TolErr          ....  5.000e-07


Diagonalization of the overlap matrix:
Smallest eigenvalue                        ... 1.086e-03
Time for diagonalization                   ...    0.055 sec
Threshold for overlap eigenvalues          ... 1.000e-08
Number of eigenvalues below threshold      ... 0
Time for construction of square roots      ...    0.008 sec
Total time needed                          ...    0.064 sec

---------------------
INITIAL GUESS: MOREAD
---------------------
Guess MOs are being read from file: previous.gbw
Input geometry compatible with but different from current geometry
Input basis set matches current basis set (good)
MOs were renormalized
MOs were reorthogonalized (Schmidt)
                      ------------------
                      INITIAL GUESS DONE (   0.2 sec)
                      ------------------
-------------------
DFT GRID GENERATION
-------------------

General Integration Accuracy     IntAcc      ...  5.010
Radial Grid Type                 RadialGrid  ... Gauss-Chebyshev
Angular Grid (max. acc.)         AngularGrid ... Lebedev-434
Angular grid pruning method      GridPruning ... 3 (G Style)
Weight generation scheme         WeightScheme... Becke
Basis function cutoff            BFCut       ...    1.0000e-11
Integration weight cutoff        WCut        ...    1.0000e-14
Grids for H and He will be reduced by one unit

# of grid points (after initial pruning)     ... 115882 (   0.1 sec)
# of grid points (after weights+screening)   ... 109640 (   0.3 sec)
nearest neighbour list constructed           ...    0.0 sec
Grid point re-assignment to atoms done       ...    0.0 sec
Grid point division into batches done        ...    1.1 sec
Reduced shell lists constructed in    3.3 sec

Total number of grid points                  ...   109640
Total number of batches                      ...     1720
Average number of points per batch           ...       63
Average number of grid points per atom       ...     9137
Average number of shells per batch           ...    50.12 (49.63%)
Average number of basis functions per batch  ...   129.11 (49.85%)
Average number of large shells per batch     ...    37.23 (74.28%)
Average number of large basis fcns per batch ...    94.40 (73.12%)
Maximum spatial batch extension              ...  34.90, 31.94, 36.45 au
Average spatial batch extension              ...   2.51,  2.50,  2.52 au

Time for grid setup =    3.643 sec

--------------------
COSX GRID GENERATION
--------------------

General Integration Accuracy     IntAcc      ...  3.340
Radial Grid Type                 RadialGrid  ... Gauss-Chebyshev
Angular Grid (max. acc.)         AngularGrid ... Lebedev-50
Angular grid pruning method      GridPruning ... 3 (G Style)
Weight generation scheme         WeightScheme... Becke
Basis function cutoff            BFCut       ...    1.0000e-11
Integration weight cutoff        WCut        ...    1.0000e-14
Grids for H and He will be reduced by one unit

# of grid points (after initial pruning)     ...   6578 (   0.0 sec)
# of grid points (after weights+screening)   ...   6227 (   0.0 sec)
nearest neighbour list constructed           ...    0.0 sec
Grid point re-assignment to atoms done       ...    0.0 sec
Grid point division into batches done        ...    0.0 sec
Reduced shell lists constructed in    0.1 sec

Total number of grid points                  ...     6227
Total number of batches                      ...      103
Average number of points per batch           ...       60
Average number of grid points per atom       ...      519
Average number of shells per batch           ...    61.70 (61.09%)
Average number of basis functions per batch  ...   162.30 (62.66%)
Average number of large shells per batch     ...    46.53 (75.41%)
Average number of large basis fcns per batch ...   119.91 (73.88%)
Maximum spatial batch extension              ...  31.72, 28.29, 26.82 au
Average spatial batch extension              ...   6.80,  6.63,  6.78 au

Overlap Fitting                  UseSFitting ... on
Constructing numerical overlap ... done (      0.1 sec)
Inverting numerical overlap    ... done (      0.0 sec)
Obtaining analytic overlap     ... done (      0.0 sec)
Final contraction and storage  ... done (      0.0 sec)


General Integration Accuracy     IntAcc      ...  3.670
Radial Grid Type                 RadialGrid  ... Gauss-Chebyshev
Angular Grid (max. acc.)         AngularGrid ... Lebedev-50
Angular grid pruning method      GridPruning ... 3 (G Style)
Weight generation scheme         WeightScheme... Becke
Basis function cutoff            BFCut       ...    1.0000e-11
Integration weight cutoff        WCut        ...    1.0000e-14
Grids for H and He will be reduced by one unit

# of grid points (after initial pruning)     ...   8124 (   0.0 sec)
# of grid points (after weights+screening)   ...   7667 (   0.0 sec)
nearest neighbour list constructed           ...    0.0 sec
Grid point re-assignment to atoms done       ...    0.0 sec
Grid point division into batches done        ...    0.0 sec
Reduced shell lists constructed in    0.2 sec

Total number of grid points                  ...     7667
Total number of batches                      ...      124
Average number of points per batch           ...       61
Average number of grid points per atom       ...      639
Average number of shells per batch           ...    60.43 (59.83%)
Average number of basis functions per batch  ...   158.46 (61.18%)
Average number of large shells per batch     ...    46.12 (76.32%)
Average number of large basis fcns per batch ...   118.20 (74.59%)
Maximum spatial batch extension              ...  33.50, 32.13, 26.72 au
Average spatial batch extension              ...   6.25,  5.99,  5.97 au

Overlap Fitting                  UseSFitting ... on
Constructing numerical overlap ... done (      0.1 sec)
Inverting numerical overlap    ... done (      0.0 sec)
Obtaining analytic overlap     ... done (      0.0 sec)
Final contraction and storage  ... done (      0.0 sec)


General Integration Accuracy     IntAcc      ...  4.010
Radial Grid Type                 RadialGrid  ... Gauss-Chebyshev
Angular Grid (max. acc.)         AngularGrid ... Lebedev-110
Angular grid pruning method      GridPruning ... 3 (G Style)
Weight generation scheme         WeightScheme... Becke
Basis function cutoff            BFCut       ...    1.0000e-11
Integration weight cutoff        WCut        ...    1.0000e-14
Grids for H and He will be reduced by one unit

# of grid points (after initial pruning)     ...  15170 (   0.0 sec)
# of grid points (after weights+screening)   ...  14464 (   0.0 sec)
nearest neighbour list constructed           ...    0.0 sec
Grid point re-assignment to atoms done       ...    0.0 sec
Grid point division into batches done        ...    0.0 sec
Reduced shell lists constructed in    0.3 sec

Total number of grid points                  ...    14464
Total number of batches                      ...      232
Average number of points per batch           ...       62
Average number of grid points per atom       ...     1205
Average number of shells per batch           ...    56.73 (56.17%)
Average number of basis functions per batch  ...   148.20 (57.22%)
Average number of large shells per batch     ...    42.64 (75.16%)
Average number of large basis fcns per batch ...   109.17 (73.66%)
Maximum spatial batch extension              ...  29.18, 29.28, 28.80 au
Average spatial batch extension              ...   5.12,  5.14,  4.99 au

Overlap Fitting                  UseSFitting ... on
Constructing numerical overlap ... done (      0.2 sec)
Inverting numerical overlap    ... done (      0.0 sec)
Obtaining analytic overlap     ... done (      0.0 sec)
Final contraction and storage  ... done (      0.0 sec)

Time for X-Grid setup             =    1.126 sec
--------------
SCF ITERATIONS
--------------
ITER       Energy         Delta-E        Max-DP      RMS-DP      [F,P]     Damp
               ***  Starting incremental Fock matrix formation  ***
  0  -1668.6396007919   0.000000000000 0.03093371  0.00047880  0.5667103 0.8500
  1  -1668.6743593034  -0.034758511506 0.02992256  0.00055561  0.4822012 0.8500
                               ***Turning on DIIS***
  2  -1668.7069476626  -0.032588359235 0.02508509  0.00052750  0.4100896 0.8500
  3  -1668.7351575674  -0.028209904804 0.02300044  0.00047171  0.3487296 0.8500
  4  -1668.7598017049  -0.024644137486 0.02094675  0.00043425  0.2964871 0.8500
  5  -1668.7813022172  -0.021500512333 0.01912531  0.00040365  0.2520329 0.8500
  6  -1668.8003097741  -0.019007556851 0.01734079  0.00037137  0.2142344 0.8500
  7  -1668.8171680281  -0.016858253983 0.01565454  0.00033966  0.1821030 0.8500
  8  -1668.8320966621  -0.014928634024 0.01390487  0.00030623  0.1547920 0.8500
  9  -1668.8452099858  -0.013113323753 0.01216792  0.00027266  0.1315764 0.8500
 10  -1668.8566855680  -0.011475582165 0.01056835  0.00024137  0.1118417 0.8500
 11  -1668.8667131044  -0.010027536416 0.00915809  0.00021326  0.0950663 0.8500
 12  -1668.8754630626  -0.008749958162 0.00793038  0.00018825  0.0808068 0.8500
 13  -1668.8830837507  -0.007620688099 0.00685456  0.00016587  0.0686860 0.8500
 14  -1668.8897058084  -0.006622057759 0.00590883  0.00014583  0.0583831 0.8500
 15  -1668.8954477546  -0.005741946149 0.00520660  0.00012799  0.0496256 0.8500
 16  -1668.9004173078  -0.004969553226 0.00457670  0.00011221  0.0421817 0.8500
 17  -1668.9047113166  -0.004294008728 0.00401504  0.00009832  0.0358543 0.8500
 18  -1668.9084159828  -0.003704666248 0.00351670  0.00008611  0.0304761 0.8500
 19  -1668.9116076658  -0.003191682980 0.02050718  0.00050252  0.0259045 0.0000
               *** Restarting incremental Fock matrix formation ***
                                   *** Resetting DIIS ***
 20  -1668.9332326497  -0.021624983927 0.00113287  0.00003469  0.0009462 0.0000
               *** Restarting incremental Fock matrix formation ***
                                   *** Resetting DIIS ***
 21  -1668.9306339119   0.002598737778 0.00092633  0.00002966  0.0007794 0.0000
                      *** Initiating the SOSCF procedure ***
                           *** Shutting down DIIS ***
                      *** Re-Reading the Fockian *** 
                      *** Removing any level shift *** 
ITER      Energy       Delta-E        Grad      Rot      Max-DP    RMS-DP
 22  -1668.93064605  -0.0000121336  0.000916  0.000916  0.000752  0.000017
               *** Restarting incremental Fock matrix formation ***
 23  -1668.93065389  -0.0000078443  0.000686  0.003508  0.001233  0.000028
 24  -1668.93066180  -0.0000079080  0.000283  0.004050  0.001252  0.000031
 25  -1668.93066371  -0.0000019110  0.000198  0.000438  0.000308  0.000006
 26  -1668.93066454  -0.0000008323  0.000018  0.000116  0.000064  0.000001
 27  -1668.93066462  -0.0000000767  0.000008  0.000030  0.000031  0.000000
 28  -1668.93066460   0.0000000133  0.000004  0.000025  0.000013  0.000000
                  ***Gradient check signals convergence***
              ***Rediagonalizing the Fockian in SOSCF/NRSCF***

               *****************************************************
               *                     SUCCESS                       *
               *           SCF CONVERGED AFTER  29 CYCLES          *
               *****************************************************

Old exchange energy                            =    -59.147304210 Eh
New exchange energy                            =    -59.151065557 Eh
Exchange energy change after final integration =     -0.003761347 Eh
Total energy after final integration           =  -1668.934425951 Eh
Final COS-X integration done in                =    14.793 sec

----------------
TOTAL SCF ENERGY
----------------

Total Energy       :        -1668.93442595 Eh          -45414.01453 eV

Components:
Nuclear Repulsion  :          512.66861765 Eh           13950.42231 eV
Electronic Energy  :        -2181.60304360 Eh          -59364.43685 eV

One Electron Energy:        -3394.94831390 Eh          -92381.24019 eV
Two Electron Energy:         1213.34527030 Eh           33016.80335 eV

Virial components:
Potential Energy   :        -3206.36856083 Eh          -87249.72423 eV
Kinetic Energy     :         1537.43413488 Eh           41835.70970 eV
Virial Ratio       :            2.08553231


DFT components:
N(Alpha)           :       46.000001122101 electrons
N(Beta)            :       46.000001122101 electrons
N(Total)           :       92.000002244201 electrons
E(X)               :      -52.543220255682 Eh       
E(C)               :       -2.594312252822 Eh       
E(XC)              :      -55.137532508504 Eh       

---------------
SCF CONVERGENCE
---------------

  Last Energy change         ...    2.4875e-10  Tolerance :   1.0000e-08
  Last MAX-Density change    ...    1.5987e-13  Tolerance :   1.0000e-07
  Last RMS-Density change    ...    1.4192e-15  Tolerance :   5.0000e-09
  Last Orbital Gradient      ...    1.1747e-06  Tolerance :   1.0000e-05
  Last Orbital Rotation      ...    3.3141e-06  Tolerance :   1.0000e-05

             **** THE GBW FILE WAS UPDATED (PbMACl3_mp2_md2_0.orca.gbw) ****
             **** DENSITY FILE WAS UPDATED (PbMACl3_mp2_md2_0.orca.scfp.tmp) ****
             **** ENERGY FILE WAS UPDATED (PbMACl3_mp2_md2_0.orca.en.tmp) ****
----------------
ORBITAL ENERGIES
----------------

  NO   OCC          E(Eh)            E(eV) 
   0   2.0000    -102.876860     -2799.4217 
   1   2.0000    -102.876077     -2799.4004 
   2   2.0000    -102.768920     -2796.4845 
   3   2.0000     -14.996835      -408.0846 
   4   2.0000     -10.719054      -291.6803 
   5   2.0000      -9.883361      -268.9399 
   6   2.0000      -9.882604      -268.9193 
   7   2.0000      -9.774896      -265.9884 
   8   2.0000      -7.519649      -204.6201 
   9   2.0000      -7.519111      -204.6054 
  10   2.0000      -7.518920      -204.6002 
  11   2.0000      -7.518678      -204.5936 
  12   2.0000      -7.518311      -204.5836 
  13   2.0000      -7.517945      -204.5737 
  14   2.0000      -7.411693      -201.6824 
  15   2.0000      -7.410656      -201.6542 
  16   2.0000      -7.410526      -201.6507 
  17   2.0000      -5.880814      -160.0251 
  18   2.0000      -3.655365       -99.4675 
  19   2.0000      -3.653996       -99.4303 
  20   2.0000      -3.644764       -99.1791 
  21   2.0000      -1.166887       -31.7526 
  22   2.0000      -1.046206       -28.4687 
  23   2.0000      -1.045893       -28.4602 
  24   2.0000      -1.042948       -28.3801 
  25   2.0000      -1.037236       -28.2246 
  26   2.0000      -1.035552       -28.1788 
  27   2.0000      -0.892794       -24.2942 
  28   2.0000      -0.889988       -24.2178 
  29   2.0000      -0.875402       -23.8209 
  30   2.0000      -0.787712       -21.4347 
  31   2.0000      -0.696303       -18.9474 
  32   2.0000      -0.681341       -18.5402 
  33   2.0000      -0.622720       -16.9451 
  34   2.0000      -0.603033       -16.4094 
  35   2.0000      -0.528966       -14.3939 
  36   2.0000      -0.528370       -14.3777 
  37   2.0000      -0.425782       -11.5861 
  38   2.0000      -0.377887       -10.2828 
  39   2.0000      -0.375029       -10.2050 
  40   2.0000      -0.365385        -9.9426 
  41   2.0000      -0.363518        -9.8918 
  42   2.0000      -0.318178        -8.6581 
  43   2.0000      -0.280587        -7.6352 
  44   2.0000      -0.268312        -7.3011 
  45   2.0000      -0.267166        -7.2700 
  46   0.0000      -0.122439        -3.3317 
  47   0.0000      -0.108238        -2.9453 
  48   0.0000       0.010672         0.2904 
  49   0.0000       0.017884         0.4866 
  50   0.0000       0.059145         1.6094 
  51   0.0000       0.074340         2.0229 
  52   0.0000       0.084621         2.3027 
  53   0.0000       0.097923         2.6646 
  54   0.0000       0.107177         2.9164 
  55   0.0000       0.125891         3.4257 
  56   0.0000       0.129272         3.5177 
  57   0.0000       0.132516         3.6059 
  58   0.0000       0.163938         4.4610 
  59   0.0000       0.168410         4.5827 
  60   0.0000       0.191938         5.2229 
  61   0.0000       0.197211         5.3664 
  62   0.0000       0.218591         5.9482 
  63   0.0000       0.242521         6.5993 
  64   0.0000       0.249295         6.7837 
  65   0.0000       0.261550         7.1171 
  66   0.0000       0.287212         7.8154 
  67   0.0000       0.296264         8.0618 
  68   0.0000       0.315335         8.5807 
  69   0.0000       0.347358         9.4521 
  70   0.0000       0.379264        10.3203 
  71   0.0000       0.398779        10.8513 
  72   0.0000       0.418934        11.3998 
  73   0.0000       0.425987        11.5917 
  74   0.0000       0.438695        11.9375 
  75   0.0000       0.443381        12.0650 
  76   0.0000       0.445821        12.1314 
  77   0.0000       0.450653        12.2629 
  78   0.0000       0.461111        12.5475 
  79   0.0000       0.466218        12.6864 
  80   0.0000       0.477626        12.9969 
  81   0.0000       0.487160        13.2563 
  82   0.0000       0.489517        13.3204 
  83   0.0000       0.496461        13.5094 
  84   0.0000       0.509615        13.8673 
  85   0.0000       0.513101        13.9622 
  86   0.0000       0.520916        14.1749 
  87   0.0000       0.523774        14.2526 
  88   0.0000       0.534435        14.5427 
  89   0.0000       0.541342        14.7307 
  90   0.0000       0.554091        15.0776 
  91   0.0000       0.571542        15.5525 
  92   0.0000       0.586672        15.9641 
  93   0.0000       0.598457        16.2848 
  94   0.0000       0.602599        16.3975 
  95   0.0000       0.620680        16.8896 
  96   0.0000       0.632083        17.1998 
  97   0.0000       0.641743        17.4627 
  98   0.0000       0.647960        17.6319 
  99   0.0000       0.652029        17.7426 
 100   0.0000       0.653456        17.7814 
 101   0.0000       0.665563        18.1109 
 102   0.0000       0.680023        18.5044 
 103   0.0000       0.697960        18.9924 
 104   0.0000       0.710183        19.3251 
 105   0.0000       0.715209        19.4618 
 106   0.0000       0.718397        19.5486 
 107   0.0000       0.727144        19.7866 
 108   0.0000       0.729651        19.8548 
 109   0.0000       0.769776        20.9467 
 110   0.0000       0.811880        22.0924 
 111   0.0000       0.863844        23.5064 
 112   0.0000       0.875793        23.8315 
 113   0.0000       0.887069        24.1384 
 114   0.0000       0.891708        24.2646 
 115   0.0000       0.899547        24.4779 
 116   0.0000       0.912104        24.8196 
 117   0.0000       0.998660        27.1749 
 118   0.0000       1.008766        27.4499 
 119   0.0000       1.011446        27.5228 
 120   0.0000       1.035831        28.1864 
 121   0.0000       1.043718        28.4010 
 122   0.0000       1.086832        29.5742 
 123   0.0000       1.110679        30.2231 
 124   0.0000       1.179603        32.0986 
 125   0.0000       1.197795        32.5937 
 126   0.0000       1.227742        33.4086 
 127   0.0000       1.263511        34.3819 
 128   0.0000       1.286053        34.9953 
 129   0.0000       1.340841        36.4861 
 130   0.0000       1.492959        40.6255 
 131   0.0000       1.561358        42.4867 
 132   0.0000       1.564005        42.5587 
 133   0.0000       1.576336        42.8943 
 134   0.0000       1.593475        43.3607 
 135   0.0000       1.616670        43.9918 
 136   0.0000       1.694883        46.1201 
 137   0.0000       1.797878        48.9227 
 138   0.0000       1.822219        49.5851 
 139   0.0000       1.867838        50.8265 
 140   0.0000       1.873600        50.9832 
 141   0.0000       1.884412        51.2775 
 142   0.0000       1.897349        51.6295 
 143   0.0000       1.898006        51.6474 
 144   0.0000       1.906257        51.8719 
 145   0.0000       1.918495        52.2049 
 146   0.0000       1.938033        52.7366 
 147   0.0000       1.956189        53.2306 
 148   0.0000       1.982348        53.9424 
 149   0.0000       1.983091        53.9627 
 150   0.0000       1.989345        54.1328 
 151   0.0000       1.990670        54.1689 
 152   0.0000       1.998903        54.3929 
 153   0.0000       2.008010        54.6407 
 154   0.0000       2.031484        55.2795 
 155   0.0000       2.041611        55.5551 
 156   0.0000       2.060228        56.0616 
 157   0.0000       2.076631        56.5080 
 158   0.0000       2.082132        56.6577 
 159   0.0000       2.087155        56.7944 
 160   0.0000       2.088131        56.8209 
 161   0.0000       2.095697        57.0268 
 162   0.0000       2.099009        57.1169 
 163   0.0000       2.120416        57.6994 
 164   0.0000       2.139792        58.2267 
 165   0.0000       2.164914        58.9103 
 166   0.0000       2.219814        60.4042 
 167   0.0000       2.230649        60.6990 
 168   0.0000       2.232735        60.7558 
 169   0.0000       2.233602        60.7794 
 170   0.0000       2.234731        60.8101 
 171   0.0000       2.235591        60.8335 
 172   0.0000       2.237516        60.8859 
 173   0.0000       2.256705        61.4081 
 174   0.0000       2.262385        61.5626 
 175   0.0000       2.267664        61.7063 
 176   0.0000       2.275692        61.9247 
 177   0.0000       2.289878        62.3107 
 178   0.0000       2.301529        62.6278 
 179   0.0000       2.310167        62.8628 
 180   0.0000       2.319112        63.1063 
 181   0.0000       2.328802        63.3699 
 182   0.0000       2.335918        63.5635 
 183   0.0000       2.337516        63.6070 
 184   0.0000       2.344116        63.7866 
 185   0.0000       2.351870        63.9976 
 186   0.0000       2.361920        64.2711 
 187   0.0000       2.362695        64.2922 
 188   0.0000       2.365551        64.3699 
 189   0.0000       2.377163        64.6859 
 190   0.0000       2.383612        64.8614 
 191   0.0000       2.392003        65.0897 
 192   0.0000       2.402689        65.3805 
 193   0.0000       2.419972        65.8508 
 194   0.0000       2.433461        66.2178 
 195   0.0000       2.449054        66.6422 
 196   0.0000       2.453588        66.7655 
 197   0.0000       2.471070        67.2412 
 198   0.0000       2.477618        67.4194 
 199   0.0000       2.506986        68.2185 
 200   0.0000       2.538562        69.0778 
 201   0.0000       2.586565        70.3840 
 202   0.0000       2.608176        70.9721 
 203   0.0000       2.616896        71.2094 
 204   0.0000       2.623323        71.3843 
 205   0.0000       2.694046        73.3087 
 206   0.0000       2.764545        75.2271 
 207   0.0000       2.783999        75.7565 
 208   0.0000       2.793881        76.0254 
 209   0.0000       2.963555        80.6424 
 210   0.0000       3.047109        82.9161 
 211   0.0000       3.065138        83.4066 
 212   0.0000       3.105837        84.5141 
 213   0.0000       3.119098        84.8750 
 214   0.0000       3.156137        85.8829 
 215   0.0000       3.194171        86.9178 
 216   0.0000       3.200477        87.0894 
 217   0.0000       3.275017        89.1177 
 218   0.0000       3.389480        92.2325 
 219   0.0000       3.545417        96.4757 
 220   0.0000       3.560413        96.8838 
 221   0.0000       3.575392        97.2914 
 222   0.0000       3.747513       101.9750 
 223   0.0000       3.788799       103.0985 
 224   0.0000       3.901309       106.1600 
 225   0.0000       4.156258       113.0975 
 226   0.0000       4.171435       113.5105 
 227   0.0000       4.377680       119.1227 
 228   0.0000       4.437952       120.7628 
 229   0.0000       4.815715       131.0423 
 230   0.0000       4.823831       131.2631 
 231   0.0000       4.915711       133.7633 
 232   0.0000       4.921894       133.9315 
 233   0.0000       5.042915       137.2247 
 234   0.0000       5.070139       137.9655 
 235   0.0000       5.122411       139.3879 
 236   0.0000       5.292281       144.0103 
 237   0.0000       5.445034       148.1669 
 238   0.0000       5.483087       149.2024 
 239   0.0000       5.798182       157.7766 
 240   0.0000      11.019017       299.8427 
 241   0.0000      11.035435       300.2895 
 242   0.0000      11.037030       300.3329 
 243   0.0000      11.048241       300.6379 
 244   0.0000      11.107846       302.2599 
 245   0.0000      11.120851       302.6137 
 246   0.0000      11.140448       303.1470 
 247   0.0000      11.182325       304.2865 
 248   0.0000      11.196064       304.6604 
 249   0.0000      22.644141       616.1784 
 250   0.0000      24.968707       679.4331 
 251   0.0000      25.001755       680.3323 
 252   0.0000      25.230029       686.5440 
 253   0.0000      32.305747       879.0841 
 254   0.0000      35.450425       964.6551 
 255   0.0000      35.620273       969.2769 
 256   0.0000      35.676151       970.7974 
 257   0.0000      35.734307       972.3799 
 258   0.0000     123.516047      3361.0425 

                    ********************************
                    * MULLIKEN POPULATION ANALYSIS *
                    ********************************

-----------------------
MULLIKEN ATOMIC CHARGES
-----------------------
   0 C :   -0.233671
   1 N :   -0.307559
   2 H :    0.140192
   3 H :    0.177629
   4 H :    0.177173
   5 H :    0.271962
   6 H :    0.276345
   7 H :    0.249732
   8 Pb:    0.952204
   9 Cl:   -0.482809
  10 Cl:   -0.737155
  11 Cl:   -0.484046
Sum of atomic charges:   -0.0000000

--------------------------------
MULLIKEN REDUCED ORBITAL CHARGES
--------------------------------
  0 C s       :     3.263184  s :     3.263184
      pz      :     0.982550  p :     2.898598
      px      :     1.001337
      py      :     0.914711
      dz2     :     0.005660  d :     0.065788
      dxz     :     0.017894
      dyz     :     0.018064
      dx2y2   :     0.006019
      dxy     :     0.018150
      f0      :     0.000359  f :     0.006101
      f+1     :     0.000493
      f-1     :     0.000678
      f+2     :     0.000753
      f-2     :     0.002700
      f+3     :     0.000535
      f-3     :     0.000583
  1 N s       :     3.433705  s :     3.433705
      pz      :     1.278221  p :     3.821418
      px      :     1.276197
      py      :     1.266999
      dz2     :     0.005745  d :     0.050185
      dxz     :     0.012882
      dyz     :     0.012325
      dx2y2   :     0.006551
      dxy     :     0.012682
      f0      :     0.000130  f :     0.002251
      f+1     :     0.000177
      f-1     :     0.000209
      f+2     :     0.000232
      f-2     :     0.001154
      f+3     :     0.000170
      f-3     :     0.000179
  2 H s       :     0.838474  s :     0.838474
      pz      :     0.008232  p :     0.021334
      px      :     0.007707
      py      :     0.005395
  3 H s       :     0.800048  s :     0.800048
      pz      :     0.006717  p :     0.022323
      px      :     0.007640
      py      :     0.007966
  4 H s       :     0.800511  s :     0.800511
      pz      :     0.007007  p :     0.022316
      px      :     0.007236
      py      :     0.008073
  5 H s       :     0.694943  s :     0.694943
      pz      :     0.009674  p :     0.033095
      px      :     0.011883
      py      :     0.011538
  6 H s       :     0.690337  s :     0.690337
      pz      :     0.011655  p :     0.033317
      px      :     0.009901
      py      :     0.011761
  7 H s       :     0.701698  s :     0.701698
      pz      :     0.017347  p :     0.048570
      px      :     0.016839
      py      :     0.014384
  8 Pbs       :     3.974436  s :     3.974436
      pz      :     2.308926  p :     6.835866
      px      :     2.313820
      py      :     2.213120
      dz2     :     2.045238  d :    10.202438
      dxz     :     2.070598
      dyz     :     2.027468
      dx2y2   :     2.031830
      dxy     :     2.027304
      f0      :     0.004488  f :     0.035055
      f+1     :     0.009381
      f-1     :     0.001738
      f+2     :     0.007434
      f-2     :     0.006598
      f+3     :     0.002636
      f-3     :     0.002781
  9 Cls       :     5.958342  s :     5.958342
      pz      :     3.817587  p :    11.506954
      px      :     3.806835
      py      :     3.882532
      dz2     :     0.003695  d :     0.016872
      dxz     :     0.006955
      dyz     :     0.002475
      dx2y2   :     0.002256
      dxy     :     0.001492
      f0      :     0.000071  f :     0.000641
      f+1     :     0.000203
      f-1     :     0.000036
      f+2     :     0.000158
      f-2     :     0.000096
      f+3     :     0.000040
      f-3     :     0.000037
 10 Cls       :     5.960529  s :     5.960529
      pz      :     3.956378  p :    11.769463
      px      :     3.950423
      py      :     3.862662
      dz2     :     0.000802  d :     0.006863
      dxz     :     0.000960
      dyz     :     0.001831
      dx2y2   :     0.001270
      dxy     :     0.002000
      f0      :     0.000048  f :     0.000299
      f+1     :     0.000011
      f-1     :     0.000018
      f+2     :     0.000032
      f-2     :     0.000098
      f+3     :     0.000072
      f-3     :     0.000020
 11 Cls       :     5.957887  s :     5.957887
      pz      :     3.806559  p :    11.508811
      px      :     3.824160
      py      :     3.878092
      dz2     :     0.002906  d :     0.016699
      dxz     :     0.007166
      dyz     :     0.001343
      dx2y2   :     0.003062
      dxy     :     0.002222
      f0      :     0.000066  f :     0.000650
      f+1     :     0.000191
      f-1     :     0.000015
      f+2     :     0.000197
      f-2     :     0.000081
      f+3     :     0.000057
      f-3     :     0.000043


                     *******************************
                     * LOEWDIN POPULATION ANALYSIS *
                     *******************************

----------------------
LOEWDIN ATOMIC CHARGES
----------------------
   0 C :   -0.270407
   1 N :    0.093219
   2 H :    0.117301
   3 H :    0.134991
   4 H :    0.135001
   5 H :    0.194900
   6 H :    0.193858
   7 H :    0.111030
   8 Pb:    0.408585
   9 Cl:   -0.219197
  10 Cl:   -0.681752
  11 Cl:   -0.217528

-------------------------------
LOEWDIN REDUCED ORBITAL CHARGES
-------------------------------
  0 C s       :     2.857078  s :     2.857078
      pz      :     1.035217  p :     3.082685
      px      :     1.047621
      py      :     0.999847
      dz2     :     0.025924  d :     0.293778
      dxz     :     0.078904
      dyz     :     0.079784
      dx2y2   :     0.030700
      dxy     :     0.078466
      f0      :     0.005238  f :     0.036867
      f+1     :     0.003783
      f-1     :     0.005553
      f+2     :     0.004187
      f-2     :     0.007375
      f+3     :     0.004989
      f-3     :     0.005741
  1 N s       :     3.007142  s :     3.007142
      pz      :     1.246976  p :     3.725473
      px      :     1.243707
      py      :     1.234791
      dz2     :     0.017908  d :     0.164573
      dxz     :     0.040763
      dyz     :     0.042425
      dx2y2   :     0.019468
      dxy     :     0.044009
      f0      :     0.001541  f :     0.009593
      f+1     :     0.001120
      f-1     :     0.001391
      f+2     :     0.001052
      f-2     :     0.001707
      f+3     :     0.001286
      f-3     :     0.001494
  2 H s       :     0.820536  s :     0.820536
      pz      :     0.022983  p :     0.062163
      px      :     0.021852
      py      :     0.017327
  3 H s       :     0.801432  s :     0.801432
      pz      :     0.018921  p :     0.063578
      px      :     0.023078
      py      :     0.021579
  4 H s       :     0.801531  s :     0.801531
      pz      :     0.021333  p :     0.063468
      px      :     0.020342
      py      :     0.021794
  5 H s       :     0.708318  s :     0.708318
      pz      :     0.031034  p :     0.096783
      px      :     0.033011
      py      :     0.032737
  6 H s       :     0.707353  s :     0.707353
      pz      :     0.032474  p :     0.098789
      px      :     0.032681
      py      :     0.033634
  7 H s       :     0.723762  s :     0.723762
      pz      :     0.059554  p :     0.165208
      px      :     0.057101
      py      :     0.048552
  8 Pbs       :     3.848492  s :     3.848492
      pz      :     2.412607  p :     7.085922
      px      :     2.417816
      py      :     2.255499
      dz2     :     2.100445  d :    10.566351
      dxz     :     2.254836
      dyz     :     2.059495
      dx2y2   :     2.092659
      dxy     :     2.058916
      f0      :     0.010128  f :     0.090650
      f+1     :     0.026460
      f-1     :     0.003873
      f+2     :     0.023024
      f-2     :     0.014685
      f+3     :     0.006641
      f-3     :     0.005838
  9 Cls       :     5.782283  s :     5.782283
      pz      :     3.789330  p :    11.403476
      px      :     3.774385
      py      :     3.839761
      dz2     :     0.004712  d :     0.031930
      dxz     :     0.018648
      dyz     :     0.002809
      dx2y2   :     0.003949
      dxy     :     0.001811
      f0      :     0.000061  f :     0.001509
      f+1     :     0.000642
      f-1     :     0.000057
      f+2     :     0.000467
      f-2     :     0.000165
      f+3     :     0.000062
      f-3     :     0.000054
 10 Cls       :     5.929273  s :     5.929273
      pz      :     3.945049  p :    11.742717
      px      :     3.939604
      py      :     3.858064
      dz2     :     0.000906  d :     0.009252
      dxz     :     0.001208
      dyz     :     0.002685
      dx2y2   :     0.001454
      dxy     :     0.002998
      f0      :     0.000086  f :     0.000509
      f+1     :     0.000011
      f-1     :     0.000019
      f+2     :     0.000049
      f-2     :     0.000187
      f+3     :     0.000134
      f-3     :     0.000024
 11 Cls       :     5.781322  s :     5.781322
      pz      :     3.773467  p :    11.403056
      px      :     3.794866
      py      :     3.834722
      dz2     :     0.002558  d :     0.031638
      dxz     :     0.019504
      dyz     :     0.000994
      dx2y2   :     0.006901
      dxy     :     0.001681
      f0      :     0.000120  f :     0.001513
      f+1     :     0.000454
      f-1     :     0.000010
      f+2     :     0.000683
      f-2     :     0.000059
      f+3     :     0.000157
      f-3     :     0.000032


                      *****************************
                      * MAYER POPULATION ANALYSIS *
                      *****************************

  NA   - Mulliken gross atomic population
  ZA   - Total nuclear charge
  QA   - Mulliken gross atomic charge
  VA   - Mayer's total valence
  BVA  - Mayer's bonded valence
  FA   - Mayer's free valence

  ATOM       NA         ZA         QA         VA         BVA        FA
  0 C      6.2337     6.0000    -0.2337     3.8041     3.8041    -0.0000
  1 N      7.3076     7.0000    -0.3076     3.2733     3.2733    -0.0000
  2 H      0.8598     1.0000     0.1402     0.9603     0.9603     0.0000
  3 H      0.8224     1.0000     0.1776     0.9765     0.9765     0.0000
  4 H      0.8228     1.0000     0.1772     0.9738     0.9738    -0.0000
  5 H      0.7280     1.0000     0.2720     0.9345     0.9345    -0.0000
  6 H      0.7237     1.0000     0.2763     0.9406     0.9406    -0.0000
  7 H      0.7503     1.0000     0.2497     1.0978     1.0978     0.0000
  8 Pb    21.0478    22.0000     0.9522     1.7721     1.7721    -0.0000
  9 Cl    17.4828    17.0000    -0.4828     0.9038     0.9038     0.0000
 10 Cl    17.7372    17.0000    -0.7372     0.4742     0.4742     0.0000
 11 Cl    17.4840    17.0000    -0.4840     0.9024     0.9024    -0.0000

  Mayer bond orders larger than 0.1
B(  0-C ,  1-N ) :   0.8846 B(  0-C ,  2-H ) :   0.9650 B(  0-C ,  3-H ) :   0.9618 
B(  0-C ,  4-H ) :   0.9629 B(  1-N ,  5-H ) :   0.8931 B(  1-N ,  6-H ) :   0.8861 
B(  1-N ,  7-H ) :   0.6806 B(  7-H , 10-Cl) :   0.4221 B(  8-Pb,  9-Cl) :   0.8446 
B(  8-Pb, 11-Cl) :   0.8549 

-------
TIMINGS
-------

Total SCF time: 0 days 0 hours 4 min 57 sec 

Total time                  ....     297.361 sec
Sum of individual times     ....     281.932 sec  ( 94.8%)

Fock matrix formation       ....     275.982 sec  ( 92.8%)
  Coulomb formation         ....     214.917 sec  ( 77.9% of F)
  Split-RI-J                ....      19.585 sec  (  7.1% of F)
  Chain of spheres X        ....     209.796 sec  ( 76.0% of F)
  COS-X 1 center corr.      ....       0.000 sec  (  0.0% of F)
  XC integration            ....      60.901 sec  ( 22.1% of F)
    Basis function eval.    ....      30.835 sec  ( 50.6% of XC)
    Density eval.           ....      10.453 sec  ( 17.2% of XC)
    XC-Functional eval.     ....       3.840 sec  (  6.3% of XC)
    XC-Potential eval.      ....      14.660 sec  ( 24.1% of XC)
Diagonalization             ....       0.608 sec  (  0.2%)
Density matrix formation    ....       0.047 sec  (  0.0%)
Population analysis         ....       0.060 sec  (  0.0%)
Initial guess               ....       0.234 sec  (  0.1%)
Orbital Transformation      ....       0.000 sec  (  0.0%)
Orbital Orthonormalization  ....       0.228 sec  (  0.1%)
DIIS solution               ....       0.132 sec  (  0.0%)
SOSCF solution              ....       0.099 sec  (  0.0%)
Grid generation             ....       4.769 sec  (  1.6%)

------------------------------------------------------------------------------
                              ORCA MP2 CALCULATION
------------------------------------------------------------------------------


----------------------
RI-MP2 ENERGY+GRADIENT
----------------------
Dimension of the basis                    ...  259
Memory devoted to MP2                     ... 1000 MB   
Data format for buffers                   ... DOUBLE
Compression type for matrix containers    ... UNCOMPRESSED
Overall scaling of the MP2 energy         ...   2.700e-01 Eh
Calculating two index integrals           ... done (    0.020 sec)
Cholesky decomposition of the V-matrix    ... done
Cholesky decomposition of V**-1           ... done (    0.039 sec)

-----------------
RI-TRANSFORMATION (AUX index driven)
-----------------

Dimension of the orbital-basis         ... 259
Dimension of the aux-basis             ... 493
Transformation of internal MOs         ...    0-  45
Transformation of internal/external MOs...    0-  45 to   46- 258
Number Format for Storage              ... Double (8 Byte)
Integral mode                          ... Direct

First Phase: integral generation and transformation of MO indices
  Aux angular momentum 0               ... done (    0.639 sec)
  Aux angular momentum 1               ... done (    0.339 sec)
  Aux angular momentum 2               ... done (    0.360 sec)
  Aux angular momentum 3               ... done (    0.198 sec)
  Aux angular momentum 4               ... done (    0.170 sec)
Closing buffer VIJ ( 0.00 GB; CompressionRatio= 1.95)
Closing buffer VIA ( 0.04 GB; CompressionRatio= 1.00)
  Phase 1 completed in     1.909 sec
Second Phase: sorting and transformation of aux index

IJ-Transformation
Memory available                       ... 990 MB 
Max. # MO pairs treated in a batch     ... 46    
# of internal orbitals                 ... 46
# batches for internal orbitals        ... 1
Closing buffer IJV ( 0.00 GB; CompressionRatio= 1.00)
(ij|v) transformation done in     0.095 sec

IA-Transformation
Memory available                       ... 990 MB 
Max. # MO pairs treated in a batch     ... 46    
# of internal orbitals                 ... 46
# batches for internal orbitals        ... 1
Closing buffer IAV ( 0.04 GB; CompressionRatio= 1.00)
(ia|v) transformation done in     0.255 sec

  Phase 2 completed in     0.423 sec
RI-Integral transformation completed in     2.333 sec
Opening buffers                              ... done

Starting loop over batches of integrals:

Operator 0  - window                       ... (  0- 45)x( 46-258)
Operator 0  - Memory available             ...  1000 MB
Operator 0  - Memory needed per MO         ...   1.6 MB
Operator 0  - Number of orbitals per batch ... 46
Operator 0  - Number of batches            ... 1

OPERATOR  0   PASS   0:  MOs     0 ...   45
  Reading integrals       ... ok
  Internal MO   2
  Internal MO   5
  Internal MO   8
  Internal MO  11
  Internal MO  14
  Internal MO  17
  Internal MO  20
  Internal MO  23
  Internal MO  26
  Internal MO  29
  Internal MO  32
  Internal MO  35
  Internal MO  38
  Internal MO  41
  Internal MO  44
Closing buffer GIPV ( 0.04 GB; CompressionRatio= 1.00)
Time spent in pair loops =    37.777 sec

-----------------------------------------------
 RI-MP2 CORRELATION ENERGY:     -0.576159833 Eh
-----------------------------------------------


---------------------
MP2 DENSITY FORMATION
---------------------

Completing the external part of the density      ... done
Storing the unrelaxed density                    ... done

Calculating the xc-kernel                        ... done
Calculating G(D)                                 ... done
Completing the Lagrangian                        ... done
Solving the Z-vector equations                   ... 

------------------------------------------------------------------------------
                           ORCA CP-SCF CALCULATION
------------------------------------------------------------------------------

Input orbitals are from        ... PbMACl3_mp2_md2_0.orca.gbw
Input Perturbation             ... PbMACl3_mp2_md2_0.orca.pin.tmp
Wavefunction output            ... PbMACl3_mp2_md2_0.orca.pout.tmp
Perturbation mode              ... Real perturbation
Solver                         ... DIIS
   MaxDIIS                     ... 20
   Levelshift                  ...    3.000e-01 Eh
Max. number of iterations      ... 128
Convergence tolerance          ... 1.000e-08
Integral handling              ... Direct
COSX GridX                     ... 1
Number of perturbations        ... 1
Number of operators            ... 1
Orbital ranges used for CP-SCF:
 Operator 0:  Orbitals   0... 45  to  46...258
DFT calculation                         ... on
Exchange functional (SCF)               ... B88
Exchange functional (CP-SCF)            ... B88
   X-Alpha parameter    XAlpha (SCF)    ...  0.666667
   X-Alpha parameter    XAlpha (CP-SCF) ...  0.666667
   Becke's b parameter  XBeta (SCF)     ...  0.004200
   Becke's b parameter  XBeta (CP-SCF)  ...  0.004200
Correlation functional (SCF)            ... LYP
Correlation functional (CP-SCF)         ... LYP
 LDA part of GGA corr.  LDAOpt (SCF)    ... VWN-3
 LDA part of GGA corr.  LDAOpt (CP-SCF) ... VWN-3
Hybrid DFT                              ... on
   Exchange mixing (SCF)                ...  0.530
   Exchange mixing (CP-SCF)             ...  0.530
   GGA exch. scaling(SCF)               ...  0.470
   GGA exch. scaling (CP-SCF)           ...  0.470
   GGA corr. scaling (SCF)              ...  0.730
   GGA corr. scaling (CP-SCF)           ...  0.730
The RIJCOSX approximation is active
Variables per vector in CP-SCF ... 9798
Number of vectors sought       ... 1
Calculating the xc-kernel      ... done

Solving the CP-SCF equations by a DIIS algorithm

-----------------
CP-SCF ITERATIONS
-----------------
  Iteration   0: MaxR=  0.092770473
  Iteration   1: MaxR=  0.041298025
  Iteration   2: MaxR=  0.009293797
  Iteration   3: MaxR=  0.004874359
  Iteration   4: MaxR=  0.002841570
  Iteration   5: MaxR=  0.001490217
  Iteration   6: MaxR=  0.000791276
  Iteration   7: MaxR=  0.000349788
  Iteration   8: MaxR=  0.000192984
  Iteration   9: MaxR=  0.000075197
  Iteration  10: MaxR=  0.000028978
  Iteration  11: MaxR=  0.000013223
  Iteration  12: MaxR=  0.000007500
  Iteration  13: MaxR=  0.000004476
  Iteration  14: MaxR=  0.000001779
  Iteration  15: MaxR=  0.000000873
  Iteration  16: MaxR=  0.000000415
  Iteration  17: MaxR=  0.000000215
  Iteration  18: MaxR=  0.000000095
  Iteration  19: MaxR=  0.000000037
  Iteration  20: MaxR=  0.000000016
  Iteration  21: MaxR=  0.000000008
                              *** THE CP-SCF HAS CONVERGED *** 
done
Finalizing the relaxed density                   ... done
Transforming P to the AO basis                   ... done
Storing the relaxed density                      ... done

------------------------------------
ENERGY WEIGHTED DENSITY FINALIZATION
------------------------------------

Gathering the parts of the W-matrix              ... done
Forming the Z-density                            ... done
Transforming Z to the AO basis                   ... done
Calculating G(Z)                                 ... done
Finalizing the W-matrix                          ... done
Transforming W to the AO basis and storing       ... done
Entering the RIJONX and RIJCOSX sections
Starting the three-index derivative integrals:
Operator 0  - Memory available             ...  1000 MB
Operator 0  - Memory needed per MO         ...   1.0 MB
Operator 0  - Number of orbitals per batch ... 46
Operator 0  - Number of batches            ... 1

OPERATOR  0   PASS   0:  MOs     0 ...   45

----------------------------------
MP2 DERIVATIVE INTEGRAL GENERATION
----------------------------------


Input Correlated Electron Density   ... PbMACl3_mp2_md2_0.orca.pmp2re
Input Energy Weighted Density       ... PbMACl3_mp2_md2_0.orca.wmp2.tmp
Input SCF Electron Density          ... PbMACl3_mp2_md2_0.orca.scfp.tmp

One-Electron Terms    ...
  ECP gradient                                           ... One-Electron Terms done

-----------------------------------------------------------
MP2 COSX Grid Generation
-----------------------------------------------------------

General Integration Accuracy     IntAcc      ...  4.340
Radial Grid Type                 RadialGrid  ... Gauss-Chebyshev
Angular Grid (max. acc.)         AngularGrid ... Lebedev-302
Angular grid pruning method      GridPruning ... 3 (G Style)
Weight generation scheme         WeightScheme... Becke
Basis function cutoff            BFCut       ...    1.0000e-11
Integration weight cutoff        WCut        ...    1.0000e-14
Grids for H and He will be reduced by one unit

# of grid points (after initial pruning)     ...  57718 (   0.0 sec)
# of grid points (after weights+screening)   ...  54817 (   0.1 sec)
nearest neighbour list constructed           ...    0.0 sec
Grid point re-assignment to atoms done       ...    0.0 sec
Grid point division into batches done        ...    0.2 sec
Reduced shell lists constructed in    1.2 sec

Total number of grid points                  ...    54817
Total number of batches                      ...      864
Average number of points per batch           ...       63
Average number of grid points per atom       ...     4568
Average number of shells per batch           ...    51.69 (51.18%)
Average number of basis functions per batch  ...   133.87 (51.69%)
Average number of large shells per batch     ...    38.33 (74.15%)
Average number of large basis fcns per batch ...    97.50 (72.83%)
Maximum spatial batch extension              ...  33.26, 35.78, 34.50 au
Average spatial batch extension              ...   3.17,  3.13,  3.18 au

Overlap Fitting                  UseSFitting ... on
Two electron COSX terms .... 
Integration Timings:
Total Time                  =    64.8 sec
Basis fcn evaluation        =     0.5 sec
Density evaluation          =     0.7 sec
Integral evaluation         =    62.1 sec
K(P) evaluation             =     0.5 sec
                          .... COSX two electron terms done
COSX two-electron contribution to the gradient
     0:    -0.014752    -0.035837    -0.018323
     1:     0.039615     0.120384     0.042269
     2:     0.098732    -0.075344     0.106003
     3:    -0.105438     0.100687     0.095124
     4:     0.101113     0.102217    -0.098378
     5:    -0.121739    -0.127930     0.100915
     6:     0.107316    -0.128230    -0.114906
     7:    -0.082071     0.025593    -0.089972
     8:     0.001768    -0.013650     0.000001
     9:     0.055462     0.007623    -0.060897
    10:    -0.019539     0.027060    -0.019100
    11:    -0.060935    -0.002855     0.056223
Exchange-correlation gradient    ... done
Dispersion correction            ... 
Entering the calculation of the dispersion correction...

Checking the input atom types...

Done
done

                *********************************************
                * UNRELAXED MP2 DENSITY POPULATION ANALYSIS *
                *********************************************

------------------------------------------------------------------------------
                           ORCA POPULATION ANALYSIS
------------------------------------------------------------------------------
Input electron density              ... PbMACl3_mp2_md2_0.orca.pmp2ur
BaseName (.gbw .S,...)              ... PbMACl3_mp2_md2_0.orca

                    ********************************
                    * MULLIKEN POPULATION ANALYSIS *
                    ********************************

-----------------------
MULLIKEN ATOMIC CHARGES
-----------------------
   0 C :   -0.238218
   1 N :   -0.306561
   2 H :    0.141089
   3 H :    0.178558
   4 H :    0.178150
   5 H :    0.271562
   6 H :    0.275820
   7 H :    0.247605
   8 Pb:    0.930491
   9 Cl:   -0.472014
  10 Cl:   -0.733379
  11 Cl:   -0.473102
Sum of atomic charges:   -0.0000000

--------------------------------
MULLIKEN REDUCED ORBITAL CHARGES
--------------------------------
  0 C s       :     3.261927  s :     3.261927
      pz      :     0.981188  p :     2.894715
      px      :     0.999800
      py      :     0.913728
      dz2     :     0.007673  d :     0.074343
      dxz     :     0.019454
      dyz     :     0.019539
      dx2y2   :     0.008011
      dxy     :     0.019666
      f0      :     0.000515  f :     0.007233
      f+1     :     0.000667
      f-1     :     0.000848
      f+2     :     0.000934
      f-2     :     0.002822
      f+3     :     0.000699
      f-3     :     0.000748
  1 N s       :     3.431348  s :     3.431348
      pz      :     1.274725  p :     3.811088
      px      :     1.272828
      py      :     1.263535
      dz2     :     0.007987  d :     0.060843
      dxz     :     0.014940
      dyz     :     0.014391
      dx2y2   :     0.008797
      dxy     :     0.014729
      f0      :     0.000272  f :     0.003281
      f+1     :     0.000327
      f-1     :     0.000361
      f+2     :     0.000386
      f-2     :     0.001292
      f+3     :     0.000316
      f-3     :     0.000327
  2 H s       :     0.836537  s :     0.836537
      pz      :     0.008562  p :     0.022373
      px      :     0.008041
      py      :     0.005770
  3 H s       :     0.798162  s :     0.798162
      pz      :     0.007046  p :     0.023279
      px      :     0.007964
      py      :     0.008270
  4 H s       :     0.798578  s :     0.798578
      pz      :     0.007337  p :     0.023272
      px      :     0.007560
      py      :     0.008376
  5 H s       :     0.694667  s :     0.694667
      pz      :     0.009898  p :     0.033772
      px      :     0.012086
      py      :     0.011788
  6 H s       :     0.690204  s :     0.690204
      pz      :     0.011857  p :     0.033976
      px      :     0.010117
      py      :     0.012002
  7 H s       :     0.703248  s :     0.703248
      pz      :     0.017509  p :     0.049147
      px      :     0.017018
      py      :     0.014620
  8 Pbs       :     3.951796  s :     3.951796
      pz      :     2.321356  p :     6.875381
      px      :     2.326171
      py      :     2.227854
      dz2     :     2.039391  d :    10.171385
      dxz     :     2.063782
      dyz     :     2.021399
      dx2y2   :     2.025562
      dxy     :     2.021250
      f0      :     0.009656  f :     0.070948
      f+1     :     0.014518
      f-1     :     0.006858
      f+2     :     0.012503
      f-2     :     0.011770
      f+3     :     0.007738
      f-3     :     0.007904
  9 Cls       :     5.953405  s :     5.953405
      pz      :     3.802116  p :    11.460011
      px      :     3.790998
      py      :     3.866897
      dz2     :     0.011469  d :     0.055274
      dxz     :     0.014632
      dyz     :     0.010181
      dx2y2   :     0.009872
      dxy     :     0.009120
      f0      :     0.000463  f :     0.003324
      f+1     :     0.000597
      f-1     :     0.000419
      f+2     :     0.000541
      f-2     :     0.000482
      f+3     :     0.000413
      f-3     :     0.000410
 10 Cls       :     5.956233  s :     5.956233
      pz      :     3.942987  p :    11.728925
      px      :     3.937015
      py      :     3.848922
      dz2     :     0.008481  d :     0.045304
      dxz     :     0.008624
      dyz     :     0.009533
      dx2y2   :     0.008959
      dxy     :     0.009705
      f0      :     0.000420  f :     0.002918
      f+1     :     0.000383
      f-1     :     0.000392
      f+2     :     0.000406
      f-2     :     0.000476
      f+3     :     0.000447
      f-3     :     0.000394
 11 Cls       :     5.952949  s :     5.952949
      pz      :     3.790691  p :    11.461770
      px      :     3.808731
      py      :     3.862348
      dz2     :     0.010630  d :     0.055052
      dxz     :     0.014840
      dyz     :     0.008961
      dx2y2   :     0.010704
      dxy     :     0.009917
      f0      :     0.000451  f :     0.003331
      f+1     :     0.000587
      f-1     :     0.000388
      f+2     :     0.000578
      f-2     :     0.000468
      f+3     :     0.000436
      f-3     :     0.000423


                     *******************************
                     * LOEWDIN POPULATION ANALYSIS *
                     *******************************

----------------------
LOEWDIN ATOMIC CHARGES
----------------------
   0 C :   -0.273521
   1 N :    0.092187
   2 H :    0.117976
   3 H :    0.135695
   4 H :    0.135723
   5 H :    0.194582
   6 H :    0.193503
   7 H :    0.110201
   8 Pb:    0.389317
   9 Cl:   -0.209718
  10 Cl:   -0.678044
  11 Cl:   -0.207901

-------------------------------
LOEWDIN REDUCED ORBITAL CHARGES
-------------------------------
  0 C s       :     2.856480  s :     2.856480
      pz      :     1.032897  p :     3.075765
      px      :     1.045206
      py      :     0.997662
      dz2     :     0.027719  d :     0.302662
      dxz     :     0.080704
      dyz     :     0.081542
      dx2y2   :     0.032455
      dxy     :     0.080243
      f0      :     0.005462  f :     0.038614
      f+1     :     0.003999
      f-1     :     0.005763
      f+2     :     0.004399
      f-2     :     0.007826
      f+3     :     0.005213
      f-3     :     0.005951
  1 N s       :     3.006587  s :     3.006587
      pz      :     1.243346  p :     3.714573
      px      :     1.240140
      py      :     1.231086
      dz2     :     0.019885  d :     0.175738
      dxz     :     0.043143
      dyz     :     0.044856
      dx2y2   :     0.021447
      dxy     :     0.046407
      f0      :     0.001718  f :     0.010915
      f+1     :     0.001293
      f-1     :     0.001562
      f+2     :     0.001225
      f-2     :     0.001987
      f+3     :     0.001465
      f-3     :     0.001665
  2 H s       :     0.817980  s :     0.817980
      pz      :     0.023642  p :     0.064044
      px      :     0.022480
      py      :     0.017922
  3 H s       :     0.798982  s :     0.798982
      pz      :     0.019486  p :     0.065323
      px      :     0.023688
      py      :     0.022148
  4 H s       :     0.799064  s :     0.799064
      pz      :     0.021922  p :     0.065214
      px      :     0.020925
      py      :     0.022367
  5 H s       :     0.707112  s :     0.707112
      pz      :     0.031490  p :     0.098306
      px      :     0.033492
      py      :     0.033324
  6 H s       :     0.706222  s :     0.706222
      pz      :     0.032927  p :     0.100275
      px      :     0.033141
      py      :     0.034207
  7 H s       :     0.723519  s :     0.723519
      pz      :     0.059936  p :     0.166280
      px      :     0.057473
      py      :     0.048870
  8 Pbs       :     3.827511  s :     3.827511
      pz      :     2.424162  p :     7.123566
      px      :     2.429269
      py      :     2.270135
      dz2     :     2.094294  d :    10.532778
      dxz     :     2.246426
      dyz     :     2.053314
      dx2y2   :     2.086002
      dxy     :     2.052743
      f0      :     0.015303  f :     0.126828
      f+1     :     0.031716
      f-1     :     0.009001
      f+2     :     0.028232
      f-2     :     0.019844
      f+3     :     0.011769
      f-3     :     0.010962
  9 Cls       :     5.777615  s :     5.777615
      pz      :     3.774253  p :    11.357527
      px      :     3.758939
      py      :     3.824336
      dz2     :     0.012457  d :     0.070335
      dxz     :     0.026402
      dyz     :     0.010496
      dx2y2   :     0.011560
      dxy     :     0.009421
      f0      :     0.000457  f :     0.004241
      f+1     :     0.001053
      f-1     :     0.000442
      f+2     :     0.000864
      f-2     :     0.000559
      f+3     :     0.000437
      f-3     :     0.000429
 10 Cls       :     5.924792  s :     5.924792
      pz      :     3.931692  p :    11.702292
      px      :     3.926232
      py      :     3.844368
      dz2     :     0.008618  d :     0.047817
      dxz     :     0.008907
      dyz     :     0.010392
      dx2y2   :     0.009189
      dxy     :     0.010711
      f0      :     0.000460  f :     0.003143
      f+1     :     0.000384
      f-1     :     0.000394
      f+2     :     0.000425
      f-2     :     0.000569
      f+3     :     0.000512
      f-3     :     0.000400
 11 Cls       :     5.776649  s :     5.776649
      pz      :     3.757997  p :    11.357023
      px      :     3.779846
      py      :     3.819180
      dz2     :     0.010245  d :     0.069986
      dxz     :     0.027258
      dyz     :     0.008587
      dx2y2   :     0.014547
      dxy     :     0.009349
      f0      :     0.000509  f :     0.004244
      f+1     :     0.000864
      f-1     :     0.000384
      f+2     :     0.001082
      f-2     :     0.000450
      f+3     :     0.000540
      f-3     :     0.000414


                      *****************************
                      * MAYER POPULATION ANALYSIS *
                      *****************************

  NA   - Mulliken gross atomic population
  ZA   - Total nuclear charge
  QA   - Mulliken gross atomic charge
  VA   - Mayer's total valence
  BVA  - Mayer's bonded valence
  FA   - Mayer's free valence

  ATOM       NA         ZA         QA         VA         BVA        FA
  0 C      6.2382     6.0000    -0.2382     3.8502     3.7368     0.1134
  1 N      7.3066     7.0000    -0.3066     3.3484     3.2058     0.1426
  2 H      0.8589     1.0000     0.1411     0.9634     0.9442     0.0192
  3 H      0.8214     1.0000     0.1786     0.9789     0.9608     0.0181
  4 H      0.8219     1.0000     0.1781     0.9761     0.9582     0.0180
  5 H      0.7284     1.0000     0.2716     0.9373     0.9165     0.0208
  6 H      0.7242     1.0000     0.2758     0.9434     0.9226     0.0208
  7 H      0.7524     1.0000     0.2476     1.1005     1.0775     0.0229
  8 Pb    21.0695    22.0000     0.9305     2.0952     1.7137     0.3815
  9 Cl    17.4720    17.0000    -0.4720     1.1469     0.8722     0.2748
 10 Cl    17.7334    17.0000    -0.7334     0.7138     0.4626     0.2511
 11 Cl    17.4731    17.0000    -0.4731     1.1458     0.8708     0.2750

  Mayer bond orders larger than 0.1
B(  0-C ,  1-N ) :   0.8634 B(  0-C ,  2-H ) :   0.9497 B(  0-C ,  3-H ) :   0.9470 
B(  0-C ,  4-H ) :   0.9480 B(  1-N ,  5-H ) :   0.8763 B(  1-N ,  6-H ) :   0.8698 
B(  1-N ,  7-H ) :   0.6687 B(  7-H , 10-Cl) :   0.4138 B(  8-Pb,  9-Cl) :   0.8163 
B(  8-Pb, 11-Cl) :   0.8263 


                *******************************************
                * RELAXED MP2 DENSITY POPULATION ANALYSIS *
                *******************************************

------------------------------------------------------------------------------
                           ORCA POPULATION ANALYSIS
------------------------------------------------------------------------------
Input electron density              ... PbMACl3_mp2_md2_0.orca.pmp2re
BaseName (.gbw .S,...)              ... PbMACl3_mp2_md2_0.orca

                    ********************************
                    * MULLIKEN POPULATION ANALYSIS *
                    ********************************

-----------------------
MULLIKEN ATOMIC CHARGES
-----------------------
   0 C :   -0.256015
   1 N :   -0.301767
   2 H :    0.144458
   3 H :    0.180905
   4 H :    0.180539
   5 H :    0.269740
   6 H :    0.272863
   7 H :    0.240712
   8 Pb:    0.855158
   9 Cl:   -0.436062
  10 Cl:   -0.713722
  11 Cl:   -0.436809
Sum of atomic charges:   -0.0000000

--------------------------------
MULLIKEN REDUCED ORBITAL CHARGES
--------------------------------
  0 C s       :     3.264061  s :     3.264061
      pz      :     0.988070  p :     2.914786
      px      :     1.006332
      py      :     0.920384
      dz2     :     0.007825  d :     0.070104
      dxz     :     0.017816
      dyz     :     0.018076
      dx2y2   :     0.008176
      dxy     :     0.018212
      f0      :     0.000493  f :     0.007063
      f+1     :     0.000658
      f-1     :     0.000835
      f+2     :     0.000923
      f-2     :     0.002740
      f+3     :     0.000681
      f-3     :     0.000732
  1 N s       :     3.431301  s :     3.431301
      pz      :     1.273869  p :     3.807952
      px      :     1.272277
      py      :     1.261806
      dz2     :     0.008120  d :     0.059287
      dxz     :     0.014368
      dyz     :     0.013771
      dx2y2   :     0.008911
      dxy     :     0.014117
      f0      :     0.000268  f :     0.003227
      f+1     :     0.000326
      f-1     :     0.000361
      f+2     :     0.000385
      f-2     :     0.001248
      f+3     :     0.000312
      f-3     :     0.000327
  2 H s       :     0.833513  s :     0.833513
      pz      :     0.008381  p :     0.022029
      px      :     0.007893
      py      :     0.005754
  3 H s       :     0.796225  s :     0.796225
      pz      :     0.006942  p :     0.022870
      px      :     0.007824
      py      :     0.008105
  4 H s       :     0.796599  s :     0.796599
      pz      :     0.007227  p :     0.022862
      px      :     0.007429
      py      :     0.008207
  5 H s       :     0.696849  s :     0.696849
      pz      :     0.009821  p :     0.033411
      px      :     0.011893
      py      :     0.011697
  6 H s       :     0.693529  s :     0.693529
      pz      :     0.011667  p :     0.033608
      px      :     0.010038
      py      :     0.011903
  7 H s       :     0.710634  s :     0.710634
      pz      :     0.017287  p :     0.048653
      px      :     0.016819
      py      :     0.014547
  8 Pbs       :     3.953505  s :     3.953505
      pz      :     2.347524  p :     6.960743
      px      :     2.351815
      py      :     2.261404
      dz2     :     2.038495  d :    10.161705
      dxz     :     2.057278
      dyz     :     2.021026
      dx2y2   :     2.024056
      dxy     :     2.020850
      f0      :     0.009391  f :     0.068890
      f+1     :     0.013914
      f-1     :     0.006781
      f+2     :     0.012019
      f-2     :     0.011395
      f+3     :     0.007606
      f-3     :     0.007784
  9 Cls       :     5.954997  s :     5.954997
      pz      :     3.791083  p :    11.422682
      px      :     3.778681
      py      :     3.852917
      dz2     :     0.011380  d :     0.055056
      dxz     :     0.014633
      dyz     :     0.010137
      dx2y2   :     0.009808
      dxy     :     0.009098
      f0      :     0.000464  f :     0.003328
      f+1     :     0.000596
      f-1     :     0.000419
      f+2     :     0.000540
      f-2     :     0.000484
      f+3     :     0.000413
      f-3     :     0.000411
 10 Cls       :     5.956968  s :     5.956968
      pz      :     3.939000  p :    11.708499
      px      :     3.932490
      py      :     3.837009
      dz2     :     0.008465  d :     0.045321
      dxz     :     0.008645
      dyz     :     0.009555
      dx2y2   :     0.008923
      dxy     :     0.009733
      f0      :     0.000422  f :     0.002933
      f+1     :     0.000383
      f-1     :     0.000393
      f+2     :     0.000407
      f-2     :     0.000480
      f+3     :     0.000451
      f-3     :     0.000396
 11 Cls       :     5.954573  s :     5.954573
      pz      :     3.778177  p :    11.424069
      px      :     3.798303
      py      :     3.847589
      dz2     :     0.010511  d :     0.054832
      dxz     :     0.014864
      dyz     :     0.008914
      dx2y2   :     0.010707
      dxy     :     0.009836
      f0      :     0.000452  f :     0.003335
      f+1     :     0.000587
      f-1     :     0.000389
      f+2     :     0.000577
      f-2     :     0.000470
      f+3     :     0.000436
      f-3     :     0.000424


                     *******************************
                     * LOEWDIN POPULATION ANALYSIS *
                     *******************************

----------------------
LOEWDIN ATOMIC CHARGES
----------------------
   0 C :   -0.283984
   1 N :    0.088506
   2 H :    0.119874
   3 H :    0.137131
   4 H :    0.137177
   5 H :    0.194854
   6 H :    0.193300
   7 H :    0.107352
   8 Pb:    0.329362
   9 Cl:   -0.181909
  10 Cl:   -0.661963
  11 Cl:   -0.179701

-------------------------------
LOEWDIN REDUCED ORBITAL CHARGES
-------------------------------
  0 C s       :     2.858001  s :     2.858001
      pz      :     1.037564  p :     3.089517
      px      :     1.049678
      py      :     1.002275
      dz2     :     0.027895  d :     0.298114
      dxz     :     0.079188
      dyz     :     0.079819
      dx2y2   :     0.032613
      dxy     :     0.078599
      f0      :     0.005432  f :     0.038351
      f+1     :     0.003980
      f-1     :     0.005754
      f+2     :     0.004363
      f-2     :     0.007709
      f+3     :     0.005166
      f-3     :     0.005948
  1 N s       :     3.008831  s :     3.008831
      pz      :     1.244069  p :     3.716253
      px      :     1.241230
      py      :     1.230954
      dz2     :     0.020109  d :     0.175426
      dxz     :     0.042952
      dyz     :     0.044612
      dx2y2   :     0.021660
      dxy     :     0.046093
      f0      :     0.001731  f :     0.010984
      f+1     :     0.001300
      f-1     :     0.001573
      f+2     :     0.001226
      f-2     :     0.002005
      f+3     :     0.001471
      f-3     :     0.001678
  2 H s       :     0.815926  s :     0.815926
      pz      :     0.023636  p :     0.064200
      px      :     0.022496
      py      :     0.018068
  3 H s       :     0.797540  s :     0.797540
      pz      :     0.019506  p :     0.065329
      px      :     0.023700
      py      :     0.022123
  4 H s       :     0.797609  s :     0.797609
      pz      :     0.021959  p :     0.065214
      px      :     0.020920
      py      :     0.022335
  5 H s       :     0.706879  s :     0.706879
      pz      :     0.031493  p :     0.098267
      px      :     0.033341
      py      :     0.033433
  6 H s       :     0.706538  s :     0.706538
      pz      :     0.032757  p :     0.100162
      px      :     0.033125
      py      :     0.034280
  7 H s       :     0.726435  s :     0.726435
      pz      :     0.059932  p :     0.166213
      px      :     0.057458
      py      :     0.048823
  8 Pbs       :     3.830266  s :     3.830266
      pz      :     2.445282  p :     7.196070
      px      :     2.449792
      py      :     2.300997
      dz2     :     2.092896  d :    10.521337
      dxz     :     2.239477
      dyz     :     2.052646
      dx2y2   :     2.084289
      dxy     :     2.052029
      f0      :     0.014779  f :     0.122965
      f+1     :     0.030579
      f-1     :     0.008860
      f+2     :     0.027356
      f-2     :     0.019152
      f+3     :     0.011511
      f-3     :     0.010727
  9 Cls       :     5.781032  s :     5.781032
      pz      :     3.765304  p :    11.325649
      px      :     3.748504
      py      :     3.811841
      dz2     :     0.012516  d :     0.070944
      dxz     :     0.026796
      dyz     :     0.010540
      dx2y2   :     0.011620
      dxy     :     0.009472
      f0      :     0.000463  f :     0.004284
      f+1     :     0.001066
      f-1     :     0.000444
      f+2     :     0.000875
      f-2     :     0.000565
      f+3     :     0.000440
      f-3     :     0.000431
 10 Cls       :     5.926016  s :     5.926016
      pz      :     3.928533  p :    11.684826
      px      :     3.922700
      py      :     3.833592
      dz2     :     0.008612  d :     0.047958
      dxz     :     0.008938
      dyz     :     0.010453
      dx2y2   :     0.009172
      dxy     :     0.010784
      f0      :     0.000463  f :     0.003162
      f+1     :     0.000385
      f-1     :     0.000395
      f+2     :     0.000427
      f-2     :     0.000575
      f+3     :     0.000516
      f-3     :     0.000401
 11 Cls       :     5.780081  s :     5.780081
      pz      :     3.747356  p :    11.324730
      px      :     3.771429
      py      :     3.805945
      dz2     :     0.010261  d :     0.070603
      dxz     :     0.027695
      dyz     :     0.008602
      dx2y2   :     0.014691
      dxy     :     0.009354
      f0      :     0.000513  f :     0.004288
      f+1     :     0.000879
      f-1     :     0.000385
      f+2     :     0.001094
      f-2     :     0.000456
      f+3     :     0.000544
      f-3     :     0.000418


                      *****************************
                      * MAYER POPULATION ANALYSIS *
                      *****************************

  NA   - Mulliken gross atomic population
  ZA   - Total nuclear charge
  QA   - Mulliken gross atomic charge
  VA   - Mayer's total valence
  BVA  - Mayer's bonded valence
  FA   - Mayer's free valence

  ATOM       NA         ZA         QA         VA         BVA        FA
  0 C      6.2560     6.0000    -0.2560     3.8517     3.7386     0.1131
  1 N      7.3018     7.0000    -0.3018     3.3554     3.2133     0.1421
  2 H      0.8555     1.0000     0.1445     0.9630     0.9440     0.0191
  3 H      0.8191     1.0000     0.1809     0.9794     0.9614     0.0180
  4 H      0.8195     1.0000     0.1805     0.9765     0.9586     0.0179
  5 H      0.7303     1.0000     0.2697     0.9410     0.9204     0.0206
  6 H      0.7271     1.0000     0.2729     0.9476     0.9271     0.0206
  7 H      0.7593     1.0000     0.2407     1.1045     1.0818     0.0227
  8 Pb    21.1448    22.0000     0.8552     2.2060     1.8325     0.3736
  9 Cl    17.4361    17.0000    -0.4361     1.2079     0.9366     0.2713
 10 Cl    17.7137    17.0000    -0.7137     0.7473     0.4981     0.2493
 11 Cl    17.4368    17.0000    -0.4368     1.2073     0.9359     0.2715

  Mayer bond orders larger than 0.1
B(  0-C ,  1-N ) :   0.8725 B(  0-C ,  2-H ) :   0.9464 B(  0-C ,  3-H ) :   0.9443 
B(  0-C ,  4-H ) :   0.9453 B(  1-N ,  5-H ) :   0.8738 B(  1-N ,  6-H ) :   0.8677 
B(  1-N ,  7-H ) :   0.6644 B(  7-H , 10-Cl) :   0.4216 B(  8-Pb,  9-Cl) :   0.8678 
B(  8-Pb, 11-Cl) :   0.8793 


-------
TIMINGS
-------

Total time                :  443.665 sec
Integral trafo            :    2.341 sec (  0.5%)
I/O of integrals          :    0.114 sec (  0.0%)
K(i,j) Operators          :    4.326 sec (  1.0%)
T(i,j) pair energies      :    1.106 sec (  0.2%)
V-calculation             :    0.020 sec (  0.0%)
V**(-1/2)                 :    0.039 sec (  0.0%)
Gamma(ia|P)               :    3.731 sec (  0.8%)
Gamma-Trafo               :    0.504 sec (  0.1%)
D(virtual)                :    1.574 sec (  0.4%)
D(internal)               :    3.923 sec (  0.9%)
W(virtual)                :    3.084 sec (  0.7%)
W(internal)               :   14.334 sec (  3.2%)
L(virtual)                :    4.496 sec (  1.0%)
L(internal)               :    0.292 sec (  0.1%)
G(D)                      :    9.875 sec (  2.2%)
G(Z)                      :    9.998 sec (  2.3%)
Z-Vector Solution         :  300.631 sec ( 67.8%)
Z-Vector Solution         :  300.631 sec ( 67.8%)
3-Index Derivative 
+ Separable RIJ part      :    3.202 sec (  0.7%)
2-Index Derivative 
+ Separable RIJ part      :    0.020 sec (  0.0%)
Separable Gradient (COSX) :   75.246 sec ( 17.0%)


---------------------------------------
MP2 TOTAL ENERGY:    -1669.510585784 Eh
---------------------------------------

The final MP2 gradient
  0:  -0.00343952  -0.00150216  -0.00447272
  1:  -0.00448361   0.05184840  -0.00689126
  2:   0.00230470  -0.00150777   0.00275456
  3:  -0.00113789   0.00304654   0.00616645
  4:   0.00611250   0.00339377  -0.00055458
  5:  -0.01323688  -0.01792225   0.00096354
  6:  -0.00010626  -0.01550400  -0.01069564
  7:   0.01721268  -0.03706100   0.01660954
  8:   0.00280100   0.00762494   0.00287068
  9:  -0.00069079  -0.00411963  -0.00133749
 10:  -0.00581047   0.01513509  -0.00596316
 11:  -0.00007056  -0.00373324  -0.00050111

-----------------------------------
NORM OF THE MP2 GRADIENT:  0.078146
-----------------------------------

Entering the calculation of the dispersion correction...

Checking the input atom types...

Done


-------------------------------------------------------------------------------
                          DFT DISPERSION CORRECTION                            
                                                                               
                                DFTD3 V2.1  Rev 6                               
                          USING Becke-Johnson damping                          
-------------------------------------------------------------------------------
The B2PLYP functional is recognized
Active option DFTDOPT                   ...         4   

molecular C6(AA) [au] = 4940.944663 


            DFT-D V3
 parameters
 s6 scaling factor         :     0.6400 
 a1 scaling factor         :     0.3065 
 s8 scaling factor         :     0.9147 
 a2 scaling factor         :     5.0570 
 ad hoc parameters k1-k3   :    16.0000     1.3333    -4.0000 

 Edisp/kcal,au: -6.608840573800  -0.010531856716 
 E6   /kcal   :  -3.111197636 
 E8   /kcal   :  -3.497642937 
 % E8         :  52.923699678 

-------------------------   ----------------
Dispersion correction           -0.010531857
-------------------------   ----------------


-------------------------   --------------------
FINAL SINGLE POINT ENERGY     -1669.521117641061
-------------------------   --------------------


                            ***************************************
                            *     ORCA property calculations      *
                            ***************************************


  WARNING: The energy has been calculated at the MP2 level but the densities
           used in the property calculations are still SCF densities
           MP2 response densities have not been calculated 
           use %mp2 Density relaxed end
           or  %mp2 Density unrelaxed end

                                    ---------------------
                                    Active property flags
                                    ---------------------
   (+) Dipole Moment


------------------------------------------------------------------------------
                       ORCA ELECTRIC PROPERTIES CALCULATION
------------------------------------------------------------------------------

Dipole Moment Calculation                       ... on
Quadrupole Moment Calculation                   ... off
Polarizability Calculation                      ... off
GBWName                                         ... PbMACl3_mp2_md2_0.orca.gbw
Electron density file                           ... PbMACl3_mp2_md2_0.orca.scfp.tmp

-------------
DIPOLE MOMENT
-------------
                                X             Y             Z
Electronic contribution:    -32.70250    -140.39543     -29.55878
Nuclear contribution   :     35.04535     137.77242      31.81883
                        -----------------------------------------
Total Dipole Moment    :      2.34285      -2.62301       2.26005
                        -----------------------------------------
Magnitude (a.u.)       :      4.18055
Magnitude (Debye)      :     10.62610


                         *** MP2 UNRELAXED DENSITY ***

------------------------------------------------------------------------------
                       ORCA ELECTRIC PROPERTIES CALCULATION
------------------------------------------------------------------------------

Dipole Moment Calculation                       ... on
Quadrupole Moment Calculation                   ... off
Polarizability Calculation                      ... off
GBWName                                         ... PbMACl3_mp2_md2_0.orca.gbw
Electron density file                           ... PbMACl3_mp2_md2_0.orca.pmp2ur

-------------
DIPOLE MOMENT
-------------
                                X             Y             Z
Electronic contribution:    -32.71345    -140.37726     -29.56801
Nuclear contribution   :     35.04535     137.77242      31.81883
                        -----------------------------------------
Total Dipole Moment    :      2.33189      -2.60484       2.25082
                        -----------------------------------------
Magnitude (a.u.)       :      4.15802
Magnitude (Debye)      :     10.56884


                           *** MP2 RELAXED DENSITY ***

------------------------------------------------------------------------------
                       ORCA ELECTRIC PROPERTIES CALCULATION
------------------------------------------------------------------------------

Dipole Moment Calculation                       ... on
Quadrupole Moment Calculation                   ... off
Polarizability Calculation                      ... off
GBWName                                         ... PbMACl3_mp2_md2_0.orca.gbw
Electron density file                           ... PbMACl3_mp2_md2_0.orca.pmp2re

-------------
DIPOLE MOMENT
-------------
                                X             Y             Z
Electronic contribution:    -32.75545    -140.31203     -29.60449
Nuclear contribution   :     35.04535     137.77242      31.81883
                        -----------------------------------------
Total Dipole Moment    :      2.28989      -2.53961       2.21434
                        -----------------------------------------
Magnitude (a.u.)       :      4.07389
Magnitude (Debye)      :     10.35499


Timings for individual modules:

Sum of individual times         ...      745.689 sec (=  12.428 min)
GTO integral calculation        ...        0.961 sec (=   0.016 min)   0.1 %
SCF iterations                  ...      297.693 sec (=   4.962 min)  39.9 %
MP2 module                      ...      447.034 sec (=   7.451 min)  59.9 %
                             ****ORCA TERMINATED NORMALLY****
TOTAL RUN TIME: 0 days 0 hours 12 minutes 26 seconds 302 msec
