
                                 *****************
                                 * O   R   C   A *
                                 *****************

           --- An Ab Initio, DFT and Semiempirical electronic structure package ---

                  #######################################################
                  #                        -***-                        #
                  #  Department of molecular theory and spectroscopy    #
                  #              Directorship: Frank Neese              #
                  # Max Planck Institute for Chemical Energy Conversion #
                  #                  D-45470 Muelheim/Ruhr              #
                  #                       Germany                       #
                  #                                                     #
                  #                  All rights reserved                #
                  #                        -***-                        #
                  #######################################################


                         Program Version 3.0.3 - RELEASE   -


 With contributions from (in alphabetic order):
   Ute Becker             : Parallelization
   Dmytro Bykov           : SCF Hessian
   Dmitry Ganyushin       : Spin-Orbit,Spin-Spin,Magnetic field MRCI
   Andreas Hansen         : Spin unrestricted coupled pair/coupled cluster methods
   Dimitrios Liakos       : Extrapolation schemes; parallel MDCI
   Robert Izsak           : Overlap fitted RIJCOSX, COSX-SCS-MP3
   Christian Kollmar      : KDIIS, OOCD, Brueckner-CCSD(T), CCSD density
   Simone Kossmann        : Meta GGA functionals, TD-DFT gradient, OOMP2, MP2 Hessian
   Taras Petrenko         : DFT Hessian,TD-DFT gradient, ASA and ECA modules, normal mode analysis, Resonance Raman, ABS, FL, XAS/XES, NRVS
   Christoph Reimann      : Effective Core Potentials
   Michael Roemelt        : Restricted open shell CIS
   Christoph Riplinger    : Improved optimizer, TS searches, QM/MM, DLPNO-CCSD
   Barbara Sandhoefer     : DKH picture change effects
   Igor Schapiro          : Molecular dynamics
   Kantharuban Sivalingam : CASSCF convergence, NEVPT2
   Boris Wezisla          : Elementary symmetry handling
   Frank Wennmohs         : Technical directorship


 We gratefully acknowledge several colleagues who have allowed us to
 interface, adapt or use parts of their codes:
   Stefan Grimme, W. Hujo, H. Kruse, T. Risthaus : VdW corrections, initial TS optimization,
                                                   DFT functionals, gCP
   Ed Valeev                                     : LibInt (2-el integral package), F12 methods
   Garnet Chan, S. Sharma, R. Olivares           : DMRG
   Ulf Ekstrom                                   : XCFun DFT Library
   Mihaly Kallay                                 : mrcc  (arbitrary order and MRCC methods)
   Andreas Klamt, Michael Diedenhofen            : otool_cosmo (COSMO solvation model)
   Frank Weinhold                                : gennbo (NPA and NBO analysis)
   Christopher J. Cramer and Donald G. Truhlar   : smd solvation model


 Your calculation uses the libint2 library for the computation of 2-el integrals
 For citations please refer to: http://libint.valeyev.net

 This ORCA versions uses:
   CBLAS   interface :  Fast vector & matrix operations
   LAPACKE interface :  Fast linear algebra routines
   SCALAPACK package :  Parallel linear algebra routines


Your calculation utilizes the basis: Ahlrichs-TZV
Cite in your paper:
H - Kr: A. Schaefer, H. Horn and R. Ahlrichs, J. Chem. Phys. 97, 2571 (1992).

The def2-TZV basis will be loaded
Cite in your paper:
 	F. Weigend, R. Ahlrichs, Phys. Chem. Chem. Phys. 2005, 7, 3297.

Your calculation utilizes the atom-pairwise dispersion correction
with the Becke-Johnson damping scheme (D3BJ)
Cite in your paper:
S.Grimme, S.Ehrlich, L.Goerigk, J Comput Chem, (2011), 32, 1456–1465 
S.Grimme, J.Antony, S.Ehrlich and H.Krieg, J.Chem.Phys., 132, (2010), 154104 
   

================================================================================
                                        WARNINGS
                       Please study these warnings very carefully!
================================================================================

WARNING: The RI method has been chosen with no auxiliary basis (AUX or GTOAUX in BASIS block)
        Standard TZV/J expansion basis used (GTOAUX=TZV_J)

Now building the actual basis set
cite the ECPs for Pb [SD(60,MDF)] as follows:
  B. Metz, H. Stoll, M. Dolg, J. Chem. Phys. 113, 2563 (2000).

ECP parameters for Pb [SD(60,MDF)] have been obtained from:
  pseudopotential library of the Stuttgart/Cologne group
  http://www.theochem.uni-stuttgart.de/pseudopotentials/

cite the ECP basis sets for Pb [DEF2-TZVP] as follows:
  F. Weigend, R. Ahlrichs; Phys. Chem. Chem. Phys. 7, 3297(2005).

ECP basis sets for Pb [DEF2-TZVP] have been obtained from:
  Turbomole basis set library
  ftp://ftp.chemie.uni-karlsruhe.de/pub/basen/



INFO   : the flag for use of LIBINT has been found!

================================================================================
                                       INPUT FILE
================================================================================
NAME = PbMACl3_mp2_14.orca
|  1> ! RIJCOSX RI-B2PLYP D3BJ def2-TZVP ECP{def2-TZVP} TIGHTSCF Grid5 FinalGrid6 SlowConv MORead
|  2> %method
|  3>  RunTyp Gradient
|  4>  end
|  5> %maxcore 1000
|  6> %moinp "previous.gbw"
|  7> *xyz 0 1
|  8> C 2.905719 3.576013 2.873338
|  9> N 2.134625 2.614408 2.046990
| 10> H 3.548796 3.021424 3.560517
| 11> H 2.209179 4.197444 3.440826
| 12> H 3.515705 4.204875 2.220874
| 13> H 1.516852 1.975028 2.601630
| 14> H 2.717740 1.973704 1.464858
| 15> H 1.486857 3.059076 1.361735
| 16> Pb 0.837185 0.131547 0.209487
| 17> Cl 3.405529 0.268387 0.089874
| 18> Cl -2.768449 2.735046 -0.108798
| 19> Cl 1.310241 0.320768 2.851419
| 20> *
| 21> 
| 22>                          ****END OF INPUT****
================================================================================

                     *******************************
                     * Energy+Gradient Calculation *
                     *******************************

---------------------------------
CARTESIAN COORDINATES (ANGSTROEM)
---------------------------------
  C      2.905719    3.576013    2.873338
  N      2.134625    2.614408    2.046990
  H      3.548796    3.021424    3.560517
  H      2.209179    4.197444    3.440826
  H      3.515705    4.204875    2.220874
  H      1.516852    1.975028    2.601630
  H      2.717740    1.973704    1.464858
  H      1.486857    3.059076    1.361735
  Pb     0.837185    0.131547    0.209487
  Cl     3.405529    0.268387    0.089874
  Cl    -2.768449    2.735046   -0.108798
  Cl     1.310241    0.320768    2.851419

----------------------------
CARTESIAN COORDINATES (A.U.)
----------------------------
  NO LB      ZA    FRAG    MASS        X           Y           Z
   0 C     6.0000    0    12.011          5.491013132131525          6.757685221342137          5.429821910189021
   1 N     7.0000    0    14.007          4.033856648621652          4.940515122332791          3.868250498875463
   2 H     1.0000    0     1.008          6.706252545155202          5.709663894456884          6.728402025170893
   3 H     1.0000    0     1.008          4.174743290810016          7.932019622470954          6.502218814475724
   4 H     1.0000    0     1.008          6.643719617657614          7.946062177372124          4.196843637946225
   5 H     1.0000    0     1.008          2.866434865690719          3.732262026826222          4.916368201793546
   6 H     1.0000    0     1.008          5.135784303203143          3.729760029424910          2.768180445083617
   7 H     1.0000    0     1.008          2.809752530303751          5.780815862851287          2.573306216975256
   8 Pb   22.0000*   0   207.200  1.582050373426863  0.248587803738939  0.395873058616761
   9 Cl   17.0000    0    35.453          6.435517151126707          0.507177927904723          0.169837246560039
  10 Cl   17.0000    0    35.453         -5.231610425728155          5.168487903676784         -0.205598423918364
  11 Cl   17.0000    0    35.453          2.475996659435115          0.606163672525652          5.388401003059601
* core charge reduced due to ECP

--------------------------------
INTERNAL COORDINATES (ANGSTROEM)
--------------------------------
 C      0   0   0   0.000000     0.000     0.000
 N      1   0   0   1.483955     0.000     0.000
 H      1   2   0   1.092397   109.099     0.000
 H      1   2   3   1.092423   109.061   240.173
 H      1   2   3   1.092364   109.305   120.114
 H      2   1   3   1.047891   114.015    60.210
 H      2   1   3   1.043744   114.712   299.789
 H      2   1   3   1.042549   114.361   179.707
 Pb     7   2   1   2.916502   105.519   175.163
 Cl     7   2   1   2.296027   163.192   170.277
 Cl     9   7   2   4.458712   100.564    30.102
 Cl     6   2   1   1.685722   138.543   238.934

---------------------------
INTERNAL COORDINATES (A.U.)
---------------------------
 C      0   0   0   0.000000     0.000     0.000
 N      1   0   0   2.804268     0.000     0.000
 H      1   2   0   2.064332   109.099     0.000
 H      1   2   3   2.064379   109.061   240.173
 H      1   2   3   2.064269   109.305   120.114
 H      2   1   3   1.980227   114.015    60.210
 H      2   1   3   1.972391   114.712   299.789
 H      2   1   3   1.970131   114.361   179.707
 Pb     7   2   1   5.511391   105.519   175.163
 Cl     7   2   1   4.338863   163.192   170.277
 Cl     9   7   2   8.425744   100.564    30.102
 Cl     6   2   1   3.185553   138.543   238.934

---------------------
BASIS SET INFORMATION
---------------------
There are 5 groups of distinct atoms

 Group   1 Type C   : 11s6p2d1f contracted to 5s3p2d1f pattern {62111/411/11/1}
 Group   2 Type N   : 11s6p2d1f contracted to 5s3p2d1f pattern {62111/411/11/1}
 Group   3 Type H   : 5s1p contracted to 3s1p pattern {311/1}
 Group   4 Type Pb  : 10s9p8d2f contracted to 6s5p3d2f pattern {421111/33111/611/11}
 Group   5 Type Cl  : 14s9p3d1f contracted to 5s5p2d1f pattern {73211/51111/21/1}

Atom   0C    basis set group =>   1
Atom   1N    basis set group =>   2
Atom   2H    basis set group =>   3
Atom   3H    basis set group =>   3
Atom   4H    basis set group =>   3
Atom   5H    basis set group =>   3
Atom   6H    basis set group =>   3
Atom   7H    basis set group =>   3
Atom   8Pb   basis set group =>   4
Atom   9Cl   basis set group =>   5
Atom  10Cl   basis set group =>   5
Atom  11Cl   basis set group =>   5
-------------------------------
AUXILIARY BASIS SET INFORMATION
-------------------------------
There are 5 groups of distinct atoms

 Group   1 Type C   : 12s5p4d2f1g contracted to 6s4p3d1f1g pattern {711111/2111/211/2/1}
 Group   2 Type N   : 12s5p4d2f1g contracted to 6s4p3d1f1g pattern {711111/2111/211/2/1}
 Group   3 Type H   : 5s2p1d contracted to 3s1p1d pattern {311/2/1}
 Group   4 Type Pb  : 31s12p8d6f3g contracted to 31s12p8d6f3g pattern {1111111111111111111111111111111/111111111111/11111111/111111/111}
 Group   5 Type Cl  : 14s5p5d2f1g contracted to 8s4p3d1f1g pattern {71111111/2111/311/2/1}

Atom   0C    basis set group =>   1
Atom   1N    basis set group =>   2
Atom   2H    basis set group =>   3
Atom   3H    basis set group =>   3
Atom   4H    basis set group =>   3
Atom   5H    basis set group =>   3
Atom   6H    basis set group =>   3
Atom   7H    basis set group =>   3
Atom   8Pb   basis set group =>   4
Atom   9Cl   basis set group =>   5
Atom  10Cl   basis set group =>   5
Atom  11Cl   basis set group =>   5

-------------------------
ECP PARAMETER INFORMATION
-------------------------

 Group 1, Type Pb ECP SD(60,MDF) (replacing 60 core electrons, lmax=5)

Atom   8Pb   ECP group =>   1


------------------------------------------------------------------------------
                           ORCA GTO INTEGRAL CALCULATION
                           -- RI-GTO INTEGRALS CHOSEN --
------------------------------------------------------------------------------

                         BASIS SET STATISTICS AND STARTUP INFO

Gaussian basis set:
 # of primitive gaussian shells          ...  186
 # of primitive gaussian functions       ...  420
 # of contracted shells                  ...  101
 # of contracted basis functions         ...  259
 Highest angular momentum                ...    3
 Maximum contraction depth               ...    7
Auxiliary gaussian basis set:
 # of primitive gaussian shells          ...  237
 # of primitive gaussian functions       ...  643
 # of contracted shells                  ...  171
 # of contracted aux-basis functions     ...  493
 Highest angular momentum                ...    4
 Maximum contraction depth               ...    7
Ratio of auxiliary to basis functions    ...  1.90
Integral package used                  ... LIBINT
 One Electron integrals                  
   ECP integrals                         ... done
 Ordering auxiliary basis shells         ... done
 Integral threshhold             Thresh  ...  2.500e-11
 Primitive cut-off               TCut    ...  2.500e-12
 Pre-screening matrix                    ... done
 Shell pair data                         ... 
 Ordering of the shell pairs             ... done (   0.001 sec) 4136 of 5151 pairs
 Determination of significant pairs      ... done (   0.000 sec)
 Creation of shell pair data             ... done (   0.001 sec)
 Storage of shell pair data              ... done (   0.001 sec)
 Shell pair data done in (   0.003 sec)
 Computing two index integrals           ... done
 Cholesky decomposition of the V-matrix  ... done


Timings:
 Total evaluation time                   ...   0.989 sec (  0.016 min)
 One electron matrix time                ...   0.572 sec (  0.010 min) = 57.9%
 Schwartz matrix evaluation time         ...   0.276 sec (  0.005 min) = 27.9%
 Two index repulsion integral time       ...   0.009 sec (  0.000 min) =  0.9%
 Cholesky decomposition of V             ...   0.096 sec (  0.002 min) =  9.7%
 Three index repulsion integral time     ...   0.000 sec (  0.000 min) =  0.0%

-------------------------------------------------------------------------------
                                 ORCA SCF
-------------------------------------------------------------------------------

------------
SCF SETTINGS
------------
Hamiltonian:
 Density Functional     Method          .... DFT(GTOs)
 Exchange Functional    Exchange        .... B88
   X-Alpha parameter    XAlpha          ....  0.666667
   Becke's b parameter  XBeta           ....  0.004200
 Correlation Functional Correlation     .... LYP
 LDA part of GGA corr.  LDAOpt          .... VWN-3
 Gradients option       PostSCFGGA      .... off
 Hybrid DFT is turned on
   Fraction HF Exchange ScalHFX         ....  0.530000
   Scaling of DF-GGA-X  ScalDFX         ....  0.470000
   Scaling of DF-GGA-C  ScalDFC         ....  0.730000
   Scaling of DF-LDA-C  ScalLDAC        ....  0.730000
   Perturbative correction              ....  0.270000
 RI-approximation to the Coulomb term is turned on
   Number of auxiliary basis functions  .... 493
   RIJ-COSX (HFX calculated with COS-X)).... on


General Settings:
 Integral files         IntName         .... PbMACl3_mp2_14.orca
 Hartree-Fock type      HFTyp           .... RHF
 Total Charge           Charge          ....    0
 Multiplicity           Mult            ....    1
 Number of Electrons    NEL             ....   92
 Basis Dimension        Dim             ....  259
 Nuclear Repulsion      ENuc            ....    527.1530849773 Eh

Convergence Acceleration:
 DIIS                   CNVDIIS         .... on
   Start iteration      DIISMaxIt       ....     0
   Startup error        DIISStart       ....  0.200000
   # of expansion vecs  DIISMaxEq       ....     5
   Bias factor          DIISBfac        ....   1.050
   Max. coefficient     DIISMaxC        ....  10.000
 Newton-Raphson         CNVNR           .... off
 SOSCF                  CNVSOSCF        .... on
   Start iteration      SOSCFMaxIt      ....   150
   Startup grad/error   SOSCFStart      ....  0.001000
 Level Shifting         CNVShift        .... on
   Level shift para.    LevelShift      ....    0.2500
   Turn off err/grad.   ShiftErr        ....    0.0000
 Zerner damping         CNVZerner       .... off
 Static damping         CNVDamp         .... on
   Fraction old density DampFac         ....    0.8500
   Max. Damping (<1)    DampMax         ....    0.9800
   Min. Damping (>=0)   DampMin         ....    0.0000
   Turn off err/grad.   DampErr         ....    0.0300
 Fernandez-Rico         CNVRico         .... off

SCF Procedure:
 Maximum # iterations   MaxIter         ....   125
 SCF integral mode      SCFMode         .... Direct
   Integral package                     .... LIBINT
 Reset frequeny         DirectResetFreq ....    20
 Integral Threshold     Thresh          ....  2.500e-11 Eh
 Primitive CutOff       TCut            ....  2.500e-12 Eh

Convergence Tolerance:
 Convergence Check Mode ConvCheckMode   .... Total+1el-Energy
 Energy Change          TolE            ....  1.000e-08 Eh
 1-El. energy change                    ....  1.000e-05 Eh
 Orbital Gradient       TolG            ....  1.000e-05
 Orbital Rotation angle TolX            ....  1.000e-05
 DIIS Error             TolErr          ....  5.000e-07


Diagonalization of the overlap matrix:
Smallest eigenvalue                        ... 1.094e-03
Time for diagonalization                   ...    0.087 sec
Threshold for overlap eigenvalues          ... 1.000e-08
Number of eigenvalues below threshold      ... 0
Time for construction of square roots      ...    0.009 sec
Total time needed                          ...    0.097 sec

---------------------
INITIAL GUESS: MOREAD
---------------------
Guess MOs are being read from file: previous.gbw
Input Geometry matches current geometry (good)
Input basis set matches current basis set (good)
MOs were renormalized
MOs were reorthogonalized (Schmidt)
                      ------------------
                      INITIAL GUESS DONE (   0.2 sec)
                      ------------------
-------------------
DFT GRID GENERATION
-------------------

General Integration Accuracy     IntAcc      ...  5.010
Radial Grid Type                 RadialGrid  ... Gauss-Chebyshev
Angular Grid (max. acc.)         AngularGrid ... Lebedev-434
Angular grid pruning method      GridPruning ... 3 (G Style)
Weight generation scheme         WeightScheme... Becke
Basis function cutoff            BFCut       ...    1.0000e-11
Integration weight cutoff        WCut        ...    1.0000e-14
Grids for H and He will be reduced by one unit

# of grid points (after initial pruning)     ... 115882 (   0.0 sec)
# of grid points (after weights+screening)   ... 109194 (   0.3 sec)
nearest neighbour list constructed           ...    0.0 sec
Grid point re-assignment to atoms done       ...    0.0 sec
Grid point division into batches done        ...    1.3 sec
Reduced shell lists constructed in    3.0 sec

Total number of grid points                  ...   109194
Total number of batches                      ...     1712
Average number of points per batch           ...       63
Average number of grid points per atom       ...     9100
Average number of shells per batch           ...    51.32 (50.81%)
Average number of basis functions per batch  ...   133.62 (51.59%)
Average number of large shells per batch     ...    38.35 (74.74%)
Average number of large basis fcns per batch ...    97.95 (73.31%)
Maximum spatial batch extension              ...  28.61, 37.95, 30.72 au
Average spatial batch extension              ...   2.42,  2.46,  2.46 au

Time for grid setup =    3.587 sec

--------------------
COSX GRID GENERATION
--------------------

General Integration Accuracy     IntAcc      ...  3.340
Radial Grid Type                 RadialGrid  ... Gauss-Chebyshev
Angular Grid (max. acc.)         AngularGrid ... Lebedev-50
Angular grid pruning method      GridPruning ... 3 (G Style)
Weight generation scheme         WeightScheme... Becke
Basis function cutoff            BFCut       ...    1.0000e-11
Integration weight cutoff        WCut        ...    1.0000e-14
Grids for H and He will be reduced by one unit

# of grid points (after initial pruning)     ...   6578 (   0.0 sec)
# of grid points (after weights+screening)   ...   6217 (   0.0 sec)
nearest neighbour list constructed           ...    0.0 sec
Grid point re-assignment to atoms done       ...    0.0 sec
Grid point division into batches done        ...    0.0 sec
Reduced shell lists constructed in    0.1 sec

Total number of grid points                  ...     6217
Total number of batches                      ...      104
Average number of points per batch           ...       59
Average number of grid points per atom       ...      518
Average number of shells per batch           ...    62.68 (62.06%)
Average number of basis functions per batch  ...   165.61 (63.94%)
Average number of large shells per batch     ...    48.16 (76.84%)
Average number of large basis fcns per batch ...   124.89 (75.41%)
Maximum spatial batch extension              ...  36.53, 27.29, 34.16 au
Average spatial batch extension              ...   6.64,  6.91,  6.95 au

Overlap Fitting                  UseSFitting ... on
Constructing numerical overlap ... done (      0.1 sec)
Inverting numerical overlap    ... done (      0.0 sec)
Obtaining analytic overlap     ... done (      0.0 sec)
Final contraction and storage  ... done (      0.0 sec)


General Integration Accuracy     IntAcc      ...  3.670
Radial Grid Type                 RadialGrid  ... Gauss-Chebyshev
Angular Grid (max. acc.)         AngularGrid ... Lebedev-50
Angular grid pruning method      GridPruning ... 3 (G Style)
Weight generation scheme         WeightScheme... Becke
Basis function cutoff            BFCut       ...    1.0000e-11
Integration weight cutoff        WCut        ...    1.0000e-14
Grids for H and He will be reduced by one unit

# of grid points (after initial pruning)     ...   8124 (   0.0 sec)
# of grid points (after weights+screening)   ...   7658 (   0.0 sec)
nearest neighbour list constructed           ...    0.0 sec
Grid point re-assignment to atoms done       ...    0.0 sec
Grid point division into batches done        ...    0.0 sec
Reduced shell lists constructed in    0.1 sec

Total number of grid points                  ...     7658
Total number of batches                      ...      124
Average number of points per batch           ...       61
Average number of grid points per atom       ...      638
Average number of shells per batch           ...    61.73 (61.12%)
Average number of basis functions per batch  ...   163.23 (63.02%)
Average number of large shells per batch     ...    47.37 (76.74%)
Average number of large basis fcns per batch ...   122.25 (74.89%)
Maximum spatial batch extension              ...  37.97, 28.17, 35.92 au
Average spatial batch extension              ...   6.18,  6.38,  6.58 au

Overlap Fitting                  UseSFitting ... on
Constructing numerical overlap ... done (      0.1 sec)
Inverting numerical overlap    ... done (      0.0 sec)
Obtaining analytic overlap     ... done (      0.0 sec)
Final contraction and storage  ... done (      0.0 sec)


General Integration Accuracy     IntAcc      ...  4.010
Radial Grid Type                 RadialGrid  ... Gauss-Chebyshev
Angular Grid (max. acc.)         AngularGrid ... Lebedev-110
Angular grid pruning method      GridPruning ... 3 (G Style)
Weight generation scheme         WeightScheme... Becke
Basis function cutoff            BFCut       ...    1.0000e-11
Integration weight cutoff        WCut        ...    1.0000e-14
Grids for H and He will be reduced by one unit

# of grid points (after initial pruning)     ...  15170 (   0.0 sec)
# of grid points (after weights+screening)   ...  14438 (   0.0 sec)
nearest neighbour list constructed           ...    0.0 sec
Grid point re-assignment to atoms done       ...    0.0 sec
Grid point division into batches done        ...    0.0 sec
Reduced shell lists constructed in    0.3 sec

Total number of grid points                  ...    14438
Total number of batches                      ...      231
Average number of points per batch           ...       62
Average number of grid points per atom       ...     1203
Average number of shells per batch           ...    58.08 (57.50%)
Average number of basis functions per batch  ...   152.97 (59.06%)
Average number of large shells per batch     ...    43.98 (75.72%)
Average number of large basis fcns per batch ...   113.53 (74.22%)
Maximum spatial batch extension              ...  39.26, 31.91, 31.55 au
Average spatial batch extension              ...   4.92,  5.18,  5.16 au

Overlap Fitting                  UseSFitting ... on
Constructing numerical overlap ... done (      0.2 sec)
Inverting numerical overlap    ... done (      0.0 sec)
Obtaining analytic overlap     ... done (      0.0 sec)
Final contraction and storage  ... done (      0.0 sec)

Time for X-Grid setup             =    1.199 sec
--------------
SCF ITERATIONS
--------------
ITER       Energy         Delta-E        Max-DP      RMS-DP      [F,P]     Damp
               ***  Starting incremental Fock matrix formation  ***
  0  -1668.8812116746   0.000000000000 0.03666966  0.00025272  0.0682444 0.8500
  1  -1668.8846038534  -0.003392178793 0.03313936  0.00024920  0.0581031 0.8500
                               ***Turning on DIIS***
  2  -1668.8877779062  -0.003174052879 0.02812339  0.00022017  0.0494647 0.8500
  3  -1668.8905184051  -0.002740498838 0.02329859  0.00018480  0.0421036 0.8500
  4  -1668.8928392235  -0.002320818448 0.01963768  0.00015751  0.0357973 0.8500
  5  -1668.8947913531  -0.001952129554 0.01704420  0.00013795  0.0304089 0.8500
  6  -1668.8964510461  -0.001659693044 0.09879633  0.00080596  0.0258322 0.0000
  7  -1668.9062794413  -0.009828395150 0.00288911  0.00004312  0.0024514 0.0000
  8  -1668.9063158526  -0.000036411293 0.00170630  0.00002675  0.0014597 0.0000
  9  -1668.9063332005  -0.000017347945 0.00147769  0.00002338  0.0012967 0.0000
 10  -1668.9063448940  -0.000011693452 0.00117700  0.00001623  0.0010914 0.0000
                      *** Initiating the SOSCF procedure ***
                           *** Shutting down DIIS ***
                      *** Re-Reading the Fockian *** 
                      *** Removing any level shift *** 
ITER      Energy       Delta-E        Grad      Rot      Max-DP    RMS-DP
 11  -1668.90635186  -0.0000069634  0.000514  0.000514  0.000921  0.000013
               *** Restarting incremental Fock matrix formation ***
 12  -1668.90637100  -0.0000191395  0.000361  0.003682  0.002046  0.000025
 13  -1668.90637583  -0.0000048282  0.000197  0.003436  0.002040  0.000031
 14  -1668.90637914  -0.0000033141  0.000128  0.000785  0.000527  0.000007
 15  -1668.90637975  -0.0000006106  0.000035  0.000843  0.000549  0.000007
 16  -1668.90637989  -0.0000001397  0.000034  0.000338  0.000224  0.000003
 17  -1668.90637993  -0.0000000386  0.000011  0.000024  0.000041  0.000001
 18  -1668.90637994  -0.0000000126  0.000003  0.000009  0.000011  0.000000
                  ***Gradient check signals convergence***
              ***Rediagonalizing the Fockian in SOSCF/NRSCF***

               *****************************************************
               *                     SUCCESS                       *
               *           SCF CONVERGED AFTER  19 CYCLES          *
               *****************************************************

Old exchange energy                            =    -59.157535413 Eh
New exchange energy                            =    -59.160523229 Eh
Exchange energy change after final integration =     -0.002987817 Eh
Total energy after final integration           =  -1668.909367767 Eh
Final COS-X integration done in                =    28.804 sec

----------------
TOTAL SCF ENERGY
----------------

Total Energy       :        -1668.90936777 Eh          -45413.33267 eV

Components:
Nuclear Repulsion  :          527.15308498 Eh           14344.56471 eV
Electronic Energy  :        -2196.06245274 Eh          -59757.89737 eV

One Electron Energy:        -3422.96380584 Eh          -93143.58048 eV
Two Electron Energy:         1226.90135309 Eh           33385.68311 eV

Virial components:
Potential Energy   :        -3206.44360383 Eh          -87251.76625 eV
Kinetic Energy     :         1537.53423606 Eh           41838.43359 eV
Virial Ratio       :            2.08544534


DFT components:
N(Alpha)           :       46.000023770614 electrons
N(Beta)            :       46.000023770614 electrons
N(Total)           :       92.000047541227 electrons
E(X)               :      -52.553520671147 Eh       
E(C)               :       -2.597560647494 Eh       
E(XC)              :      -55.151081318642 Eh       

---------------
SCF CONVERGENCE
---------------

  Last Energy change         ...   -1.0094e-08  Tolerance :   1.0000e-08
  Last MAX-Density change    ...    2.0940e-13  Tolerance :   1.0000e-07
  Last RMS-Density change    ...    9.7667e-16  Tolerance :   5.0000e-09
  Last Orbital Gradient      ...    8.2052e-07  Tolerance :   1.0000e-05
  Last Orbital Rotation      ...    4.1273e-06  Tolerance :   1.0000e-05

             **** THE GBW FILE WAS UPDATED (PbMACl3_mp2_14.orca.gbw) ****
             **** DENSITY FILE WAS UPDATED (PbMACl3_mp2_14.orca.scfp.tmp) ****
             **** ENERGY FILE WAS UPDATED (PbMACl3_mp2_14.orca.en.tmp) ****
----------------
ORBITAL ENERGIES
----------------

  NO   OCC          E(Eh)            E(eV) 
   0   2.0000    -102.911504     -2800.3644 
   1   2.0000    -102.904658     -2800.1781 
   2   2.0000    -102.737327     -2795.6248 
   3   2.0000     -14.992809      -407.9751 
   4   2.0000     -10.733343      -292.0691 
   5   2.0000      -9.917943      -269.8809 
   6   2.0000      -9.913953      -269.7724 
   7   2.0000      -9.741579      -265.0818 
   8   2.0000      -7.555123      -205.5853 
   9   2.0000      -7.553449      -205.5398 
  10   2.0000      -7.552794      -205.5220 
  11   2.0000      -7.550793      -205.4675 
  12   2.0000      -7.549551      -205.4337 
  13   2.0000      -7.548461      -205.4041 
  14   2.0000      -7.378865      -200.7891 
  15   2.0000      -7.377107      -200.7413 
  16   2.0000      -7.377048      -200.7397 
  17   2.0000      -5.888232      -160.2269 
  18   2.0000      -3.661967       -99.6472 
  19   2.0000      -3.657984       -99.5388 
  20   2.0000      -3.655311       -99.4661 
  21   2.0000      -1.178031       -32.0558 
  22   2.0000      -1.051690       -28.6179 
  23   2.0000      -1.050164       -28.5764 
  24   2.0000      -1.048354       -28.5272 
  25   2.0000      -1.046043       -28.4643 
  26   2.0000      -1.041973       -28.3535 
  27   2.0000      -0.947110       -25.7722 
  28   2.0000      -0.922650       -25.1066 
  29   2.0000      -0.884278       -24.0624 
  30   2.0000      -0.737577       -20.0705 
  31   2.0000      -0.704899       -19.1813 
  32   2.0000      -0.702343       -19.1117 
  33   2.0000      -0.635535       -17.2938 
  34   2.0000      -0.614316       -16.7164 
  35   2.0000      -0.549046       -14.9403 
  36   2.0000      -0.545388       -14.8408 
  37   2.0000      -0.429523       -11.6879 
  38   2.0000      -0.422007       -11.4834 
  39   2.0000      -0.410905       -11.1813 
  40   2.0000      -0.394492       -10.7347 
  41   2.0000      -0.390145       -10.6164 
  42   2.0000      -0.383307       -10.4303 
  43   2.0000      -0.228415        -6.2155 
  44   2.0000      -0.227841        -6.1999 
  45   2.0000      -0.224329        -6.1043 
  46   0.0000      -0.126782        -3.4499 
  47   0.0000      -0.066904        -1.8206 
  48   0.0000      -0.033154        -0.9022 
  49   0.0000       0.007915         0.2154 
  50   0.0000       0.048746         1.3264 
  51   0.0000       0.077286         2.1031 
  52   0.0000       0.087366         2.3773 
  53   0.0000       0.090361         2.4589 
  54   0.0000       0.100851         2.7443 
  55   0.0000       0.108277         2.9464 
  56   0.0000       0.122925         3.3450 
  57   0.0000       0.130298         3.5456 
  58   0.0000       0.143695         3.9101 
  59   0.0000       0.169066         4.6005 
  60   0.0000       0.187185         5.0936 
  61   0.0000       0.190050         5.1715 
  62   0.0000       0.201009         5.4697 
  63   0.0000       0.213066         5.7978 
  64   0.0000       0.234342         6.3768 
  65   0.0000       0.244168         6.6442 
  66   0.0000       0.261639         7.1196 
  67   0.0000       0.280151         7.6233 
  68   0.0000       0.317699         8.6450 
  69   0.0000       0.332844         9.0571 
  70   0.0000       0.371605        10.1119 
  71   0.0000       0.375025        10.2050 
  72   0.0000       0.387061        10.5325 
  73   0.0000       0.395138        10.7523 
  74   0.0000       0.401417        10.9231 
  75   0.0000       0.412446        11.2232 
  76   0.0000       0.427698        11.6382 
  77   0.0000       0.433873        11.8063 
  78   0.0000       0.454236        12.3604 
  79   0.0000       0.464709        12.6454 
  80   0.0000       0.470228        12.7955 
  81   0.0000       0.476828        12.9752 
  82   0.0000       0.484880        13.1943 
  83   0.0000       0.492407        13.3991 
  84   0.0000       0.502134        13.6638 
  85   0.0000       0.507327        13.8051 
  86   0.0000       0.523364        14.2415 
  87   0.0000       0.529438        14.4067 
  88   0.0000       0.536060        14.5869 
  89   0.0000       0.550912        14.9911 
  90   0.0000       0.564323        15.3560 
  91   0.0000       0.567996        15.4560 
  92   0.0000       0.582710        15.8564 
  93   0.0000       0.603762        16.4292 
  94   0.0000       0.609709        16.5910 
  95   0.0000       0.645257        17.5583 
  96   0.0000       0.661038        17.9878 
  97   0.0000       0.663183        18.0461 
  98   0.0000       0.665067        18.0974 
  99   0.0000       0.667054        18.1515 
 100   0.0000       0.667298        18.1581 
 101   0.0000       0.673992        18.3403 
 102   0.0000       0.681791        18.5525 
 103   0.0000       0.687149        18.6983 
 104   0.0000       0.697654        18.9841 
 105   0.0000       0.720072        19.5941 
 106   0.0000       0.744535        20.2598 
 107   0.0000       0.756390        20.5824 
 108   0.0000       0.769492        20.9389 
 109   0.0000       0.779565        21.2131 
 110   0.0000       0.787862        21.4388 
 111   0.0000       0.807764        21.9804 
 112   0.0000       0.838761        22.8239 
 113   0.0000       0.852336        23.1932 
 114   0.0000       0.874266        23.7900 
 115   0.0000       0.893828        24.3223 
 116   0.0000       0.927671        25.2432 
 117   0.0000       0.987504        26.8713 
 118   0.0000       0.994625        27.0651 
 119   0.0000       1.002432        27.2776 
 120   0.0000       1.021154        27.7870 
 121   0.0000       1.029974        28.0270 
 122   0.0000       1.051211        28.6049 
 123   0.0000       1.071572        29.1590 
 124   0.0000       1.162481        31.6327 
 125   0.0000       1.186785        32.2941 
 126   0.0000       1.231159        33.5015 
 127   0.0000       1.258628        34.2490 
 128   0.0000       1.306701        35.5572 
 129   0.0000       1.351560        36.7778 
 130   0.0000       1.468479        39.9593 
 131   0.0000       1.539492        41.8917 
 132   0.0000       1.544648        42.0320 
 133   0.0000       1.556644        42.3584 
 134   0.0000       1.571320        42.7578 
 135   0.0000       1.620271        44.0898 
 136   0.0000       1.686262        45.8855 
 137   0.0000       1.764455        48.0133 
 138   0.0000       1.770223        48.1702 
 139   0.0000       1.836799        49.9818 
 140   0.0000       1.847549        50.2744 
 141   0.0000       1.864554        50.7371 
 142   0.0000       1.881316        51.1932 
 143   0.0000       1.910672        51.9920 
 144   0.0000       1.919905        52.2433 
 145   0.0000       1.928298        52.4717 
 146   0.0000       1.932260        52.5795 
 147   0.0000       1.956327        53.2344 
 148   0.0000       1.961702        53.3806 
 149   0.0000       1.996756        54.3345 
 150   0.0000       2.017096        54.8880 
 151   0.0000       2.022331        55.0304 
 152   0.0000       2.024313        55.0844 
 153   0.0000       2.026292        55.1382 
 154   0.0000       2.026754        55.1508 
 155   0.0000       2.032368        55.3035 
 156   0.0000       2.040605        55.5277 
 157   0.0000       2.066286        56.2265 
 158   0.0000       2.069843        56.3233 
 159   0.0000       2.077972        56.5445 
 160   0.0000       2.080497        56.6132 
 161   0.0000       2.083677        56.6997 
 162   0.0000       2.101059        57.1727 
 163   0.0000       2.110903        57.4406 
 164   0.0000       2.122549        57.7575 
 165   0.0000       2.155243        58.6471 
 166   0.0000       2.156322        58.6765 
 167   0.0000       2.168625        59.0113 
 168   0.0000       2.184521        59.4438 
 169   0.0000       2.198268        59.8179 
 170   0.0000       2.212866        60.2152 
 171   0.0000       2.216827        60.3229 
 172   0.0000       2.232997        60.7629 
 173   0.0000       2.256678        61.4073 
 174   0.0000       2.265697        61.6527 
 175   0.0000       2.285219        62.1840 
 176   0.0000       2.305861        62.7457 
 177   0.0000       2.308936        62.8293 
 178   0.0000       2.327693        63.3397 
 179   0.0000       2.338422        63.6317 
 180   0.0000       2.354268        64.0629 
 181   0.0000       2.359554        64.2067 
 182   0.0000       2.369494        64.4772 
 183   0.0000       2.369803        64.4856 
 184   0.0000       2.370103        64.4938 
 185   0.0000       2.372576        64.5611 
 186   0.0000       2.372605        64.5619 
 187   0.0000       2.377007        64.6816 
 188   0.0000       2.377292        64.6894 
 189   0.0000       2.377433        64.6932 
 190   0.0000       2.388744        65.0010 
 191   0.0000       2.399483        65.2933 
 192   0.0000       2.410389        65.5900 
 193   0.0000       2.416118        65.7459 
 194   0.0000       2.445515        66.5459 
 195   0.0000       2.479905        67.4817 
 196   0.0000       2.483664        67.5839 
 197   0.0000       2.495731        67.9123 
 198   0.0000       2.507934        68.2443 
 199   0.0000       2.523361        68.6641 
 200   0.0000       2.561041        69.6895 
 201   0.0000       2.580475        70.2183 
 202   0.0000       2.605197        70.8910 
 203   0.0000       2.624138        71.4064 
 204   0.0000       2.642568        71.9079 
 205   0.0000       2.749557        74.8192 
 206   0.0000       2.757723        75.0414 
 207   0.0000       2.777455        75.5784 
 208   0.0000       2.793818        76.0236 
 209   0.0000       2.830677        77.0266 
 210   0.0000       2.968718        80.7829 
 211   0.0000       3.075446        83.6871 
 212   0.0000       3.100434        84.3671 
 213   0.0000       3.134145        85.2844 
 214   0.0000       3.151407        85.7541 
 215   0.0000       3.180652        86.5499 
 216   0.0000       3.262779        88.7847 
 217   0.0000       3.321290        90.3769 
 218   0.0000       3.378050        91.9214 
 219   0.0000       3.526789        95.9688 
 220   0.0000       3.551752        96.6481 
 221   0.0000       3.570416        97.1560 
 222   0.0000       3.746069       101.9357 
 223   0.0000       3.798828       103.3714 
 224   0.0000       3.897628       106.0599 
 225   0.0000       4.150412       112.9385 
 226   0.0000       4.178069       113.6910 
 227   0.0000       4.422584       120.3446 
 228   0.0000       4.455668       121.2449 
 229   0.0000       4.818653       131.1222 
 230   0.0000       4.829518       131.4179 
 231   0.0000       4.913286       133.6973 
 232   0.0000       4.955384       134.8428 
 233   0.0000       5.057867       137.6316 
 234   0.0000       5.089557       138.4939 
 235   0.0000       5.115825       139.2087 
 236   0.0000       5.260449       143.1441 
 237   0.0000       5.477475       149.0497 
 238   0.0000       5.526637       150.3874 
 239   0.0000       5.818295       158.3239 
 240   0.0000      10.999193       299.3032 
 241   0.0000      11.020383       299.8799 
 242   0.0000      11.039403       300.3974 
 243   0.0000      11.097193       301.9700 
 244   0.0000      11.118017       302.5366 
 245   0.0000      11.144244       303.2503 
 246   0.0000      11.147431       303.3370 
 247   0.0000      11.164745       303.8082 
 248   0.0000      11.176789       304.1359 
 249   0.0000      22.631319       615.8295 
 250   0.0000      24.178220       657.9228 
 251   0.0000      25.238244       686.7675 
 252   0.0000      25.334538       689.3878 
 253   0.0000      32.345224       880.1583 
 254   0.0000      35.410684       963.5737 
 255   0.0000      35.627342       969.4693 
 256   0.0000      35.672322       970.6932 
 257   0.0000      35.789467       973.8809 
 258   0.0000     123.507226      3360.8025 

                    ********************************
                    * MULLIKEN POPULATION ANALYSIS *
                    ********************************

-----------------------
MULLIKEN ATOMIC CHARGES
-----------------------
   0 C :   -0.252519
   1 N :   -0.340735
   2 H :    0.167969
   3 H :    0.172392
   4 H :    0.160109
   5 H :    0.331911
   6 H :    0.281772
   7 H :    0.284774
   8 Pb:    0.913820
   9 Cl:   -0.457202
  10 Cl:   -0.768462
  11 Cl:   -0.493829
Sum of atomic charges:   -0.0000000

--------------------------------
MULLIKEN REDUCED ORBITAL CHARGES
--------------------------------
  0 C s       :     3.281807  s :     3.281807
      pz      :     0.969770  p :     2.897402
      px      :     0.992877
      py      :     0.934756
      dz2     :     0.006772  d :     0.067249
      dxz     :     0.017899
      dyz     :     0.017518
      dx2y2   :     0.006841
      dxy     :     0.018219
      f0      :     0.000367  f :     0.006061
      f+1     :     0.000519
      f-1     :     0.000768
      f+2     :     0.000707
      f-2     :     0.002643
      f+3     :     0.000486
      f-3     :     0.000570
  1 N s       :     3.441548  s :     3.441548
      pz      :     1.290135  p :     3.845267
      px      :     1.283573
      py      :     1.271559
      dz2     :     0.005904  d :     0.051665
      dxz     :     0.012487
      dyz     :     0.012004
      dx2y2   :     0.007726
      dxy     :     0.013544
      f0      :     0.000146  f :     0.002254
      f+1     :     0.000175
      f-1     :     0.000204
      f+2     :     0.000226
      f-2     :     0.001144
      f+3     :     0.000162
      f-3     :     0.000197
  2 H s       :     0.810067  s :     0.810067
      pz      :     0.008444  p :     0.021964
      px      :     0.007864
      py      :     0.005655
  3 H s       :     0.805719  s :     0.805719
      pz      :     0.007050  p :     0.021890
      px      :     0.007269
      py      :     0.007570
  4 H s       :     0.818044  s :     0.818044
      pz      :     0.006701  p :     0.021847
      px      :     0.007489
      py      :     0.007656
  5 H s       :     0.609257  s :     0.609257
      pz      :     0.012702  p :     0.058831
      px      :     0.015008
      py      :     0.031122
  6 H s       :     0.679545  s :     0.679545
      pz      :     0.013068  p :     0.038683
      px      :     0.010832
      py      :     0.014783
  7 H s       :     0.681975  s :     0.681975
      pz      :     0.012571  p :     0.033251
      px      :     0.012550
      py      :     0.008130
  8 Pbs       :     3.969410  s :     3.969410
      pz      :     2.308768  p :     6.953561
      px      :     2.393915
      py      :     2.250878
      dz2     :     2.030913  d :    10.125599
      dxz     :     2.029811
      dyz     :     2.011792
      dx2y2   :     2.023295
      dxy     :     2.029788
      f0      :     0.009804  f :     0.037610
      f+1     :     0.009081
      f-1     :     0.003907
      f+2     :     0.003667
      f-2     :     0.000618
      f+3     :     0.005309
      f-3     :     0.005225
  9 Cls       :     5.958440  s :     5.958440
      pz      :     3.925517  p :    11.478851
      px      :     3.675509
      py      :     3.877825
      dz2     :     0.003242  d :     0.019130
      dxz     :     0.003134
      dyz     :     0.000874
      dx2y2   :     0.007704
      dxy     :     0.004177
      f0      :     0.000081  f :     0.000780
      f+1     :     0.000201
      f-1     :     0.000024
      f+2     :     0.000084
      f-2     :     0.000016
      f+3     :     0.000249
      f-3     :     0.000124
 10 Cls       :     5.994850  s :     5.994850
      pz      :     3.991773  p :    11.772898
      px      :     3.822194
      py      :     3.958931
      dz2     :     0.000121  d :     0.000688
      dxz     :     0.000095
      dyz     :     0.000016
      dx2y2   :     0.000192
      dxy     :     0.000263
      f0      :     0.000003  f :     0.000026
      f+1     :     0.000005
      f-1     :     0.000001
      f+2     :     0.000002
      f-2     :     0.000002
      f+3     :     0.000005
      f-3     :     0.000008
 11 Cls       :     5.958200  s :     5.958200
      pz      :     3.719226  p :    11.507909
      px      :     3.941061
      py      :     3.847622
      dz2     :     0.010555  d :     0.026239
      dxz     :     0.003253
      dyz     :     0.003484
      dx2y2   :     0.006738
      dxy     :     0.002209
      f0      :     0.000308  f :     0.001481
      f+1     :     0.000141
      f-1     :     0.000223
      f+2     :     0.000142
      f-2     :     0.000072
      f+3     :     0.000167
      f-3     :     0.000429


                     *******************************
                     * LOEWDIN POPULATION ANALYSIS *
                     *******************************

----------------------
LOEWDIN ATOMIC CHARGES
----------------------
   0 C :   -0.269965
   1 N :    0.063853
   2 H :    0.130655
   3 H :    0.130441
   4 H :    0.125929
   5 H :    0.090195
   6 H :    0.164560
   7 H :    0.198714
   8 Pb:    0.455380
   9 Cl:   -0.186641
  10 Cl:   -0.760754
  11 Cl:   -0.142366

-------------------------------
LOEWDIN REDUCED ORBITAL CHARGES
-------------------------------
  0 C s       :     2.854144  s :     2.854144
      pz      :     1.030543  p :     3.079670
      px      :     1.044263
      py      :     1.004865
      dz2     :     0.030972  d :     0.299205
      dxz     :     0.075700
      dyz     :     0.080115
      dx2y2   :     0.028776
      dxy     :     0.083642
      f0      :     0.005440  f :     0.036945
      f+1     :     0.004061
      f-1     :     0.005864
      f+2     :     0.004115
      f-2     :     0.007031
      f+3     :     0.004909
      f-3     :     0.005527
  1 N s       :     3.008045  s :     3.008045
      pz      :     1.241010  p :     3.750631
      px      :     1.243391
      py      :     1.266231
      dz2     :     0.017994  d :     0.167639
      dxz     :     0.042814
      dyz     :     0.042217
      dx2y2   :     0.022284
      dxy     :     0.042330
      f0      :     0.001465  f :     0.009832
      f+1     :     0.001142
      f-1     :     0.001491
      f+2     :     0.001031
      f-2     :     0.001876
      f+3     :     0.001226
      f-3     :     0.001602
  2 H s       :     0.806499  s :     0.806499
      pz      :     0.023247  p :     0.062846
      px      :     0.021885
      py      :     0.017714
  3 H s       :     0.806856  s :     0.806856
      pz      :     0.019679  p :     0.062703
      px      :     0.022306
      py      :     0.020718
  4 H s       :     0.811468  s :     0.811468
      pz      :     0.020670  p :     0.062603
      px      :     0.020964
      py      :     0.020970
  5 H s       :     0.703098  s :     0.703098
      pz      :     0.043690  p :     0.206707
      px      :     0.048100
      py      :     0.114917
  6 H s       :     0.720714  s :     0.720714
      pz      :     0.037046  p :     0.114726
      px      :     0.035511
      py      :     0.042169
  7 H s       :     0.701644  s :     0.701644
      pz      :     0.036912  p :     0.099642
      px      :     0.035003
      py      :     0.027727
  8 Pbs       :     3.849242  s :     3.849242
      pz      :     2.413911  p :     7.218623
      px      :     2.529359
      py      :     2.275353
      dz2     :     2.126949  d :    10.377882
      dxz     :     2.072771
      dyz     :     2.028525
      dx2y2   :     2.092947
      dxy     :     2.056691
      f0      :     0.027513  f :     0.098873
      f+1     :     0.024448
      f-1     :     0.008047
      f+2     :     0.008044
      f-2     :     0.001084
      f+3     :     0.018784
      f-3     :     0.010953
  9 Cls       :     5.768659  s :     5.768659
      pz      :     3.885736  p :    11.385586
      px      :     3.664423
      py      :     3.835427
      dz2     :     0.006103  d :     0.030851
      dxz     :     0.003044
      dyz     :     0.001513
      dx2y2   :     0.016567
      dxy     :     0.003625
      f0      :     0.000079  f :     0.001546
      f+1     :     0.000474
      f-1     :     0.000030
      f+2     :     0.000119
      f-2     :     0.000033
      f+3     :     0.000693
      f-3     :     0.000118
 10 Cls       :     5.989684  s :     5.989684
      pz      :     3.992434  p :    11.770378
      px      :     3.818924
      py      :     3.959019
      dz2     :     0.000115  d :     0.000667
      dxz     :     0.000097
      dyz     :     0.000016
      dx2y2   :     0.000185
      dxy     :     0.000255
      f0      :     0.000003  f :     0.000026
      f+1     :     0.000005
      f-1     :     0.000001
      f+2     :     0.000002
      f-2     :     0.000002
      f+3     :     0.000005
      f-3     :     0.000008
 11 Cls       :     5.746092  s :     5.746092
      pz      :     3.698155  p :    11.345695
      px      :     3.904076
      py      :     3.743464
      dz2     :     0.019491  d :     0.047122
      dxz     :     0.004373
      dyz     :     0.004732
      dx2y2   :     0.014779
      dxy     :     0.003746
      f0      :     0.000728  f :     0.003458
      f+1     :     0.000254
      f-1     :     0.000694
      f+2     :     0.000290
      f-2     :     0.000112
      f+3     :     0.000320
      f-3     :     0.001060


                      *****************************
                      * MAYER POPULATION ANALYSIS *
                      *****************************

  NA   - Mulliken gross atomic population
  ZA   - Total nuclear charge
  QA   - Mulliken gross atomic charge
  VA   - Mayer's total valence
  BVA  - Mayer's bonded valence
  FA   - Mayer's free valence

  ATOM       NA         ZA         QA         VA         BVA        FA
  0 C      6.2525     6.0000    -0.2525     3.8236     3.8236    -0.0000
  1 N      7.3407     7.0000    -0.3407     3.3141     3.3141     0.0000
  2 H      0.8320     1.0000     0.1680     0.9642     0.9642     0.0000
  3 H      0.8276     1.0000     0.1724     0.9588     0.9588    -0.0000
  4 H      0.8399     1.0000     0.1601     0.9619     0.9619    -0.0000
  5 H      0.6681     1.0000     0.3319     0.9507     0.9507    -0.0000
  6 H      0.7182     1.0000     0.2818     0.9655     0.9655     0.0000
  7 H      0.7152     1.0000     0.2848     0.9288     0.9288     0.0000
  8 Pb    21.0862    22.0000     0.9138     1.8223     1.8223     0.0000
  9 Cl    17.4572    17.0000    -0.4572     0.9227     0.9227    -0.0000
 10 Cl    17.7685    17.0000    -0.7685     0.4179     0.4179    -0.0000
 11 Cl    17.4938    17.0000    -0.4938     0.8663     0.8663     0.0000

  Mayer bond orders larger than 0.1
B(  0-C ,  1-N ) :   0.8958 B(  0-C ,  2-H ) :   0.9658 B(  0-C ,  3-H ) :   0.9655 
B(  0-C ,  4-H ) :   0.9689 B(  1-N ,  5-H ) :   0.7222 B(  1-N ,  6-H ) :   0.8433 
B(  1-N ,  7-H ) :   0.8836 B(  5-H , 11-Cl) :   0.2330 B(  6-H ,  9-Cl) :   0.1347 
B(  8-Pb,  9-Cl) :   0.8010 B(  8-Pb, 10-Cl) :   0.3842 B(  8-Pb, 11-Cl) :   0.6175 


-------
TIMINGS
-------

Total SCF time: 0 days 0 hours 5 min 29 sec 

Total time                  ....     329.340 sec
Sum of individual times     ....     299.273 sec  ( 90.9%)

Fock matrix formation       ....     293.303 sec  ( 89.1%)
  Coulomb formation         ....     243.365 sec  ( 83.0% of F)
  Split-RI-J                ....      17.277 sec  (  5.9% of F)
  Chain of spheres X        ....     254.828 sec  ( 86.9% of F)
  XC integration            ....      49.995 sec  ( 17.0% of F)
    Basis function eval.    ....      16.816 sec  ( 33.6% of XC)
    Density eval.           ....      13.956 sec  ( 27.9% of XC)
    XC-Functional eval.     ....       3.493 sec  (  7.0% of XC)
    XC-Potential eval.      ....      14.735 sec  ( 29.5% of XC)
Diagonalization             ....       0.505 sec  (  0.2%)
Density matrix formation    ....       0.053 sec  (  0.0%)
Population analysis         ....       0.112 sec  (  0.0%)
Initial guess               ....       0.175 sec  (  0.1%)
Orbital Transformation      ....       0.000 sec  (  0.0%)
Orbital Orthonormalization  ....       0.171 sec  (  0.1%)
DIIS solution               ....       0.140 sec  (  0.0%)
SOSCF solution              ....       0.198 sec  (  0.1%)
Grid generation             ....       4.787 sec  (  1.5%)

------------------------------------------------------------------------------
                              ORCA MP2 CALCULATION
------------------------------------------------------------------------------


----------------------
RI-MP2 ENERGY+GRADIENT
----------------------
Dimension of the basis                    ...  259
Memory devoted to MP2                     ... 1000 MB   
Data format for buffers                   ... DOUBLE
Compression type for matrix containers    ... UNCOMPRESSED
Overall scaling of the MP2 energy         ...   2.700e-01 Eh
Calculating two index integrals           ... done (    0.014 sec)
Cholesky decomposition of the V-matrix    ... done
Cholesky decomposition of V**-1           ... done (    0.034 sec)

-----------------
RI-TRANSFORMATION (AUX index driven)
-----------------

Dimension of the orbital-basis         ... 259
Dimension of the aux-basis             ... 493
Transformation of internal MOs         ...    0-  45
Transformation of internal/external MOs...    0-  45 to   46- 258
Number Format for Storage              ... Double (8 Byte)
Integral mode                          ... Direct

First Phase: integral generation and transformation of MO indices
  Aux angular momentum 0               ... done (    0.503 sec)
  Aux angular momentum 1               ... done (    0.416 sec)
  Aux angular momentum 2               ... done (    0.540 sec)
  Aux angular momentum 3               ... done (    0.343 sec)
  Aux angular momentum 4               ... done (    0.287 sec)
Closing buffer VIJ ( 0.00 GB; CompressionRatio= 1.95)
Closing buffer VIA ( 0.04 GB; CompressionRatio= 1.00)
  Phase 1 completed in     2.205 sec
Second Phase: sorting and transformation of aux index

IJ-Transformation
Memory available                       ... 990 MB 
Max. # MO pairs treated in a batch     ... 46    
# of internal orbitals                 ... 46
# batches for internal orbitals        ... 1
Closing buffer IJV ( 0.00 GB; CompressionRatio= 1.00)
(ij|v) transformation done in     0.157 sec

IA-Transformation
Memory available                       ... 990 MB 
Max. # MO pairs treated in a batch     ... 46    
# of internal orbitals                 ... 46
# batches for internal orbitals        ... 1
Closing buffer IAV ( 0.04 GB; CompressionRatio= 1.00)
(ia|v) transformation done in     0.671 sec

  Phase 2 completed in     0.882 sec
RI-Integral transformation completed in     3.088 sec
Opening buffers                              ... done

Starting loop over batches of integrals:

Operator 0  - window                       ... (  0- 45)x( 46-258)
Operator 0  - Memory available             ...  1000 MB
Operator 0  - Memory needed per MO         ...   1.6 MB
Operator 0  - Number of orbitals per batch ... 46
Operator 0  - Number of batches            ... 1

OPERATOR  0   PASS   0:  MOs     0 ...   45
  Reading integrals       ... ok
  Internal MO   2
  Internal MO   5
  Internal MO   8
  Internal MO  11
  Internal MO  14
  Internal MO  17
  Internal MO  20
  Internal MO  23
  Internal MO  26
  Internal MO  29
  Internal MO  32
  Internal MO  35
  Internal MO  38
  Internal MO  41
  Internal MO  44
Closing buffer GIPV ( 0.04 GB; CompressionRatio= 1.00)
Time spent in pair loops =    69.914 sec

-----------------------------------------------
 RI-MP2 CORRELATION ENERGY:     -0.577530816 Eh
-----------------------------------------------


---------------------
MP2 DENSITY FORMATION
---------------------

Completing the external part of the density      ... done
Storing the unrelaxed density                    ... done

Calculating the xc-kernel                        ... done
Calculating G(D)                                 ... done
Completing the Lagrangian                        ... done
Solving the Z-vector equations                   ... 

------------------------------------------------------------------------------
                           ORCA CP-SCF CALCULATION
------------------------------------------------------------------------------

Input orbitals are from        ... PbMACl3_mp2_14.orca.gbw
Input Perturbation             ... PbMACl3_mp2_14.orca.pin.tmp
Wavefunction output            ... PbMACl3_mp2_14.orca.pout.tmp
Perturbation mode              ... Real perturbation
Solver                         ... DIIS
   MaxDIIS                     ... 20
   Levelshift                  ...    3.000e-01 Eh
Max. number of iterations      ... 128
Convergence tolerance          ... 1.000e-08
Integral handling              ... Direct
COSX GridX                     ... 1
Number of perturbations        ... 1
Number of operators            ... 1
Orbital ranges used for CP-SCF:
 Operator 0:  Orbitals   0... 45  to  46...258
DFT calculation                         ... on
Exchange functional (SCF)               ... B88
Exchange functional (CP-SCF)            ... B88
   X-Alpha parameter    XAlpha (SCF)    ...  0.666667
   X-Alpha parameter    XAlpha (CP-SCF) ...  0.666667
   Becke's b parameter  XBeta (SCF)     ...  0.004200
   Becke's b parameter  XBeta (CP-SCF)  ...  0.004200
Correlation functional (SCF)            ... LYP
Correlation functional (CP-SCF)         ... LYP
 LDA part of GGA corr.  LDAOpt (SCF)    ... VWN-3
 LDA part of GGA corr.  LDAOpt (CP-SCF) ... VWN-3
Hybrid DFT                              ... on
   Exchange mixing (SCF)                ...  0.530
   Exchange mixing (CP-SCF)             ...  0.530
   GGA exch. scaling(SCF)               ...  0.470
   GGA exch. scaling (CP-SCF)           ...  0.470
   GGA corr. scaling (SCF)              ...  0.730
   GGA corr. scaling (CP-SCF)           ...  0.730
The RIJCOSX approximation is active
Variables per vector in CP-SCF ... 9798
Number of vectors sought       ... 1
Calculating the xc-kernel      ... done

Solving the CP-SCF equations by a DIIS algorithm

-----------------
CP-SCF ITERATIONS
-----------------
  Iteration   0: MaxR=  0.152579627
  Iteration   1: MaxR=  0.078247661
  Iteration   2: MaxR=  0.014556847
  Iteration   3: MaxR=  0.007655473
  Iteration   4: MaxR=  0.005209720
  Iteration   5: MaxR=  0.003294186
  Iteration   6: MaxR=  0.001899241
  Iteration   7: MaxR=  0.000953773
  Iteration   8: MaxR=  0.000618649
  Iteration   9: MaxR=  0.000445969
  Iteration  10: MaxR=  0.000349821
  Iteration  11: MaxR=  0.000271845
  Iteration  12: MaxR=  0.000146051
  Iteration  13: MaxR=  0.000063195
  Iteration  14: MaxR=  0.000029401
  Iteration  15: MaxR=  0.000015098
  Iteration  16: MaxR=  0.000007834
  Iteration  17: MaxR=  0.000003682
  Iteration  18: MaxR=  0.000001784
  Iteration  19: MaxR=  0.000001098
  Iteration  20: MaxR=  0.000000793
  Iteration  21: MaxR=  0.000000653
  Iteration  22: MaxR=  0.000000486
  Iteration  23: MaxR=  0.000000288
  Iteration  24: MaxR=  0.000000144
  Iteration  25: MaxR=  0.000000070
  Iteration  26: MaxR=  0.000000035
  Iteration  27: MaxR=  0.000000018
  Iteration  28: MaxR=  0.000000009
                              *** THE CP-SCF HAS CONVERGED *** 
done
Finalizing the relaxed density                   ... done
Transforming P to the AO basis                   ... done
Storing the relaxed density                      ... done

------------------------------------
ENERGY WEIGHTED DENSITY FINALIZATION
------------------------------------

Gathering the parts of the W-matrix              ... done
Forming the Z-density                            ... done
Transforming Z to the AO basis                   ... done
Calculating G(Z)                                 ... done
Finalizing the W-matrix                          ... done
Transforming W to the AO basis and storing       ... done
Entering the RIJONX and RIJCOSX sections
Starting the three-index derivative integrals:
Operator 0  - Memory available             ...  1000 MB
Operator 0  - Memory needed per MO         ...   1.0 MB
Operator 0  - Number of orbitals per batch ... 46
Operator 0  - Number of batches            ... 1

OPERATOR  0   PASS   0:  MOs     0 ...   45

----------------------------------
MP2 DERIVATIVE INTEGRAL GENERATION
----------------------------------


Input Correlated Electron Density   ... PbMACl3_mp2_14.orca.pmp2re
Input Energy Weighted Density       ... PbMACl3_mp2_14.orca.wmp2.tmp
Input SCF Electron Density          ... PbMACl3_mp2_14.orca.scfp.tmp

One-Electron Terms    ...
  ECP gradient                                           ... One-Electron Terms done

-----------------------------------------------------------
MP2 COSX Grid Generation
-----------------------------------------------------------

General Integration Accuracy     IntAcc      ...  4.340
Radial Grid Type                 RadialGrid  ... Gauss-Chebyshev
Angular Grid (max. acc.)         AngularGrid ... Lebedev-302
Angular grid pruning method      GridPruning ... 3 (G Style)
Weight generation scheme         WeightScheme... Becke
Basis function cutoff            BFCut       ...    1.0000e-11
Integration weight cutoff        WCut        ...    1.0000e-14
Grids for H and He will be reduced by one unit

# of grid points (after initial pruning)     ...  57718 (   0.0 sec)
# of grid points (after weights+screening)   ...  54618 (   0.2 sec)
nearest neighbour list constructed           ...    0.0 sec
Grid point re-assignment to atoms done       ...    0.0 sec
Grid point division into batches done        ...    0.3 sec
Reduced shell lists constructed in    1.2 sec

Total number of grid points                  ...    54618
Total number of batches                      ...      859
Average number of points per batch           ...       63
Average number of grid points per atom       ...     4552
Average number of shells per batch           ...    52.88 (52.35%)
Average number of basis functions per batch  ...   138.24 (53.37%)
Average number of large shells per batch     ...    39.60 (74.89%)
Average number of large basis fcns per batch ...   101.61 (73.51%)
Maximum spatial batch extension              ...  31.41, 41.89, 31.14 au
Average spatial batch extension              ...   3.05,  3.19,  3.21 au

Overlap Fitting                  UseSFitting ... on
Two electron COSX terms .... 
Integration Timings:
Total Time                  =   117.1 sec
Basis fcn evaluation        =     0.4 sec
Density evaluation          =     1.4 sec
Integral evaluation         =   112.7 sec
K(P) evaluation             =     1.2 sec
                          .... COSX two electron terms done
COSX two-electron contribution to the gradient
     0:    -0.022116    -0.028238    -0.019019
     1:     0.055542     0.036014     0.083651
     2:     0.102741    -0.080065     0.109384
     3:    -0.104058     0.099113     0.090503
     4:     0.095402     0.098943    -0.097617
     5:    -0.101469    -0.078900     0.083097
     6:     0.098657    -0.115383    -0.108478
     7:    -0.130931     0.078023    -0.135795
     8:    -0.080779    -0.012758    -0.055336
     9:     0.082314    -0.003154    -0.004031
    10:    -0.015619     0.008816    -0.001623
    11:     0.020266    -0.002519     0.055402
Exchange-correlation gradient    ... done
Dispersion correction            ... 
Entering the calculation of the dispersion correction...

Checking the input atom types...

Done
done

                *********************************************
                * UNRELAXED MP2 DENSITY POPULATION ANALYSIS *
                *********************************************

------------------------------------------------------------------------------
                           ORCA POPULATION ANALYSIS
------------------------------------------------------------------------------
Input electron density              ... PbMACl3_mp2_14.orca.pmp2ur
BaseName (.gbw .S,...)              ... PbMACl3_mp2_14.orca

                    ********************************
                    * MULLIKEN POPULATION ANALYSIS *
                    ********************************

-----------------------
MULLIKEN ATOMIC CHARGES
-----------------------
   0 C :   -0.256950
   1 N :   -0.339692
   2 H :    0.168922
   3 H :    0.173424
   4 H :    0.161117
   5 H :    0.330517
   6 H :    0.280708
   7 H :    0.283974
   8 Pb:    0.879844
   9 Cl:   -0.449816
  10 Cl:   -0.745017
  11 Cl:   -0.487032
Sum of atomic charges:   -0.0000000

--------------------------------
MULLIKEN REDUCED ORBITAL CHARGES
--------------------------------
  0 C s       :     3.280576  s :     3.280576
      pz      :     0.968406  p :     2.893361
      px      :     0.991336
      py      :     0.933619
      dz2     :     0.008792  d :     0.075814
      dxz     :     0.019461
      dyz     :     0.018999
      dx2y2   :     0.008834
      dxy     :     0.019729
      f0      :     0.000525  f :     0.007200
      f+1     :     0.000694
      f-1     :     0.000939
      f+2     :     0.000889
      f-2     :     0.002766
      f+3     :     0.000653
      f-3     :     0.000735
  1 N s       :     3.439307  s :     3.439307
      pz      :     1.286548  p :     3.834370
      px      :     1.279945
      py      :     1.267877
      dz2     :     0.008212  d :     0.062713
      dxz     :     0.014597
      dyz     :     0.014189
      dx2y2   :     0.010049
      dxy     :     0.015666
      f0      :     0.000292  f :     0.003303
      f+1     :     0.000325
      f-1     :     0.000358
      f+2     :     0.000381
      f-2     :     0.001286
      f+3     :     0.000312
      f-3     :     0.000349
  2 H s       :     0.808126  s :     0.808126
      pz      :     0.008757  p :     0.022952
      px      :     0.008183
      py      :     0.006011
  3 H s       :     0.803699  s :     0.803699
      pz      :     0.007376  p :     0.022877
      px      :     0.007606
      py      :     0.007894
  4 H s       :     0.816031  s :     0.816031
      pz      :     0.007050  p :     0.022852
      px      :     0.007817
      py      :     0.007985
  5 H s       :     0.609999  s :     0.609999
      pz      :     0.012941  p :     0.059484
      px      :     0.015227
      py      :     0.031315
  6 H s       :     0.679990  s :     0.679990
      pz      :     0.013292  p :     0.039302
      px      :     0.011030
      py      :     0.014980
  7 H s       :     0.682108  s :     0.682108
      pz      :     0.012791  p :     0.033918
      px      :     0.012756
      py      :     0.008371
  8 Pbs       :     3.949448  s :     3.949448
      pz      :     2.318503  p :     7.001537
      px      :     2.403030
      py      :     2.280005
      dz2     :     2.024858  d :    10.096188
      dxz     :     2.024216
      dyz     :     2.005770
      dx2y2   :     2.017230
      dxy     :     2.024114
      f0      :     0.014821  f :     0.072983
      f+1     :     0.014111
      f-1     :     0.009022
      f+2     :     0.008749
      f-2     :     0.005657
      f+3     :     0.010279
      f-3     :     0.010345
  9 Cls       :     5.953688  s :     5.953688
      pz      :     3.910773  p :    11.434840
      px      :     3.660846
      py      :     3.863220
      dz2     :     0.010929  d :     0.057802
      dxz     :     0.010951
      dyz     :     0.008569
      dx2y2   :     0.015327
      dxy     :     0.012025
      f0      :     0.000462  f :     0.003486
      f+1     :     0.000589
      f-1     :     0.000396
      f+2     :     0.000475
      f-2     :     0.000401
      f+3     :     0.000640
      f-3     :     0.000524
 10 Cls       :     5.989975  s :     5.989975
      pz      :     3.978654  p :    11.714582
      px      :     3.792321
      py      :     3.943607
      dz2     :     0.007577  d :     0.037907
      dxz     :     0.007528
      dyz     :     0.007487
      dx2y2   :     0.007616
      dxy     :     0.007699
      f0      :     0.000366  f :     0.002553
      f+1     :     0.000365
      f-1     :     0.000366
      f+2     :     0.000363
      f-2     :     0.000363
      f+3     :     0.000363
      f-3     :     0.000366
 11 Cls       :     5.953582  s :     5.953582
      pz      :     3.704297  p :    11.463374
      px      :     3.926321
      py      :     3.832756
      dz2     :     0.018360  d :     0.065786
      dxz     :     0.011121
      dyz     :     0.011537
      dx2y2   :     0.014683
      dxy     :     0.010083
      f0      :     0.000716  f :     0.004290
      f+1     :     0.000538
      f-1     :     0.000642
      f+2     :     0.000542
      f-2     :     0.000463
      f+3     :     0.000565
      f-3     :     0.000824


                     *******************************
                     * LOEWDIN POPULATION ANALYSIS *
                     *******************************

----------------------
LOEWDIN ATOMIC CHARGES
----------------------
   0 C :   -0.272925
   1 N :    0.062981
   2 H :    0.131393
   3 H :    0.131203
   4 H :    0.126661
   5 H :    0.090015
   6 H :    0.164025
   7 H :    0.198201
   8 Pb:    0.424110
   9 Cl:   -0.180890
  10 Cl:   -0.737073
  11 Cl:   -0.137702

-------------------------------
LOEWDIN REDUCED ORBITAL CHARGES
-------------------------------
  0 C s       :     2.853530  s :     2.853530
      pz      :     1.028156  p :     3.072591
      px      :     1.041790
      py      :     1.002645
      dz2     :     0.032749  d :     0.308100
      dxz     :     0.077508
      dyz     :     0.081886
      dx2y2   :     0.030560
      dxy     :     0.085397
      f0      :     0.005667  f :     0.038705
      f+1     :     0.004274
      f-1     :     0.006070
      f+2     :     0.004329
      f-2     :     0.007488
      f+3     :     0.005138
      f-3     :     0.005738
  1 N s       :     3.007435  s :     3.007435
      pz      :     1.237399  p :     3.739178
      px      :     1.239714
      py      :     1.262065
      dz2     :     0.020028  d :     0.179219
      dxz     :     0.045265
      dyz     :     0.044780
      dx2y2   :     0.024325
      dxy     :     0.044821
      f0      :     0.001646  f :     0.011187
      f+1     :     0.001317
      f-1     :     0.001665
      f+2     :     0.001209
      f-2     :     0.002161
      f+3     :     0.001412
      f-3     :     0.001777
  2 H s       :     0.803968  s :     0.803968
      pz      :     0.023874  p :     0.064639
      px      :     0.022487
      py      :     0.018278
  3 H s       :     0.804294  s :     0.804294
      pz      :     0.020242  p :     0.064503
      px      :     0.022940
      py      :     0.021321
  4 H s       :     0.808902  s :     0.808902
      pz      :     0.021290  p :     0.064437
      px      :     0.021560
      py      :     0.021587
  5 H s       :     0.702597  s :     0.702597
      pz      :     0.044069  p :     0.207388
      px      :     0.048516
      py      :     0.114803
  6 H s       :     0.719749  s :     0.719749
      pz      :     0.037558  p :     0.116226
      px      :     0.035959
      py      :     0.042709
  7 H s       :     0.700629  s :     0.700629
      pz      :     0.037499  p :     0.101169
      px      :     0.035532
      py      :     0.028138
  8 Pbs       :     3.830385  s :     3.830385
      pz      :     2.422676  p :     7.263500
      px      :     2.537143
      py      :     2.303681
      dz2     :     2.120528  d :    10.347750
      dxz     :     2.067000
      dyz     :     2.022552
      dx2y2   :     2.086656
      dxy     :     2.051013
      f0      :     0.032494  f :     0.134255
      f+1     :     0.029474
      f-1     :     0.013178
      f+2     :     0.013133
      f-2     :     0.006141
      f+3     :     0.023762
      f-3     :     0.016072
  9 Cls       :     5.764109  s :     5.764109
      pz      :     3.871167  p :    11.342718
      px      :     3.650311
      py      :     3.821239
      dz2     :     0.013847  d :     0.069755
      dxz     :     0.010818
      dyz     :     0.009249
      dx2y2   :     0.024371
      dxy     :     0.011470
      f0      :     0.000464  f :     0.004308
      f+1     :     0.000876
      f-1     :     0.000403
      f+2     :     0.000515
      f-2     :     0.000418
      f+3     :     0.001104
      f-3     :     0.000528
 10 Cls       :     5.984767  s :     5.984767
      pz      :     3.979295  p :    11.711854
      px      :     3.788922
      py      :     3.943637
      dz2     :     0.007573  d :     0.037900
      dxz     :     0.007532
      dyz     :     0.007489
      dx2y2   :     0.007611
      dxy     :     0.007696
      f0      :     0.000366  f :     0.002553
      f+1     :     0.000365
      f-1     :     0.000366
      f+2     :     0.000363
      f-2     :     0.000363
      f+3     :     0.000363
      f-3     :     0.000366
 11 Cls       :     5.741628  s :     5.741628
      pz      :     3.683819  p :    11.303077
      px      :     3.889481
      py      :     3.729777
      dz2     :     0.027407  d :     0.086678
      dxz     :     0.012217
      dyz     :     0.012749
      dx2y2   :     0.022655
      dxy     :     0.011650
      f0      :     0.001153  f :     0.006318
      f+1     :     0.000658
      f-1     :     0.001120
      f+2     :     0.000693
      f-2     :     0.000506
      f+3     :     0.000724
      f-3     :     0.001465


                      *****************************
                      * MAYER POPULATION ANALYSIS *
                      *****************************

  NA   - Mulliken gross atomic population
  ZA   - Total nuclear charge
  QA   - Mulliken gross atomic charge
  VA   - Mayer's total valence
  BVA  - Mayer's bonded valence
  FA   - Mayer's free valence

  ATOM       NA         ZA         QA         VA         BVA        FA
  0 C      6.2570     6.0000    -0.2570     3.8694     3.7552     0.1142
  1 N      7.3397     7.0000    -0.3397     3.3900     3.2443     0.1457
  2 H      0.8311     1.0000     0.1689     0.9668     0.9484     0.0183
  3 H      0.8266     1.0000     0.1734     0.9612     0.9432     0.0180
  4 H      0.8389     1.0000     0.1611     0.9645     0.9461     0.0184
  5 H      0.6695     1.0000     0.3305     0.9529     0.9334     0.0196
  6 H      0.7193     1.0000     0.2807     0.9681     0.9471     0.0211
  7 H      0.7160     1.0000     0.2840     0.9321     0.9103     0.0218
  8 Pb    21.1202    22.0000     0.8798     2.1520     1.7449     0.4071
  9 Cl    17.4498    17.0000    -0.4498     1.1564     0.8904     0.2660
 10 Cl    17.7450    17.0000    -0.7450     0.6939     0.3871     0.3068
 11 Cl    17.4870    17.0000    -0.4870     1.1013     0.8378     0.2635

  Mayer bond orders larger than 0.1
B(  0-C ,  1-N ) :   0.8737 B(  0-C ,  2-H ) :   0.9508 B(  0-C ,  3-H ) :   0.9505 
B(  0-C ,  4-H ) :   0.9537 B(  1-N ,  5-H ) :   0.7096 B(  1-N ,  6-H ) :   0.8276 
B(  1-N ,  7-H ) :   0.8671 B(  5-H , 11-Cl) :   0.2289 B(  6-H ,  9-Cl) :   0.1320 
B(  8-Pb,  9-Cl) :   0.7731 B(  8-Pb, 10-Cl) :   0.3558 B(  8-Pb, 11-Cl) :   0.5963 



                *******************************************
                * RELAXED MP2 DENSITY POPULATION ANALYSIS *
                *******************************************

------------------------------------------------------------------------------
                           ORCA POPULATION ANALYSIS
------------------------------------------------------------------------------
Input electron density              ... PbMACl3_mp2_14.orca.pmp2re
BaseName (.gbw .S,...)              ... PbMACl3_mp2_14.orca

                    ********************************
                    * MULLIKEN POPULATION ANALYSIS *
                    ********************************

-----------------------
MULLIKEN ATOMIC CHARGES
-----------------------
   0 C :   -0.274546
   1 N :   -0.333209
   2 H :    0.171687
   3 H :    0.174649
   4 H :    0.163959
   5 H :    0.319817
   6 H :    0.276164
   7 H :    0.280870
   8 Pb:    0.774839
   9 Cl:   -0.430686
  10 Cl:   -0.654880
  11 Cl:   -0.468666
Sum of atomic charges:   -0.0000000

--------------------------------
MULLIKEN REDUCED ORBITAL CHARGES
--------------------------------
  0 C s       :     3.282782  s :     3.282782
      pz      :     0.974921  p :     2.913028
      px      :     0.997058
      py      :     0.941049
      dz2     :     0.009067  d :     0.071704
      dxz     :     0.017890
      dyz     :     0.017494
      dx2y2   :     0.009013
      dxy     :     0.018238
      f0      :     0.000507  f :     0.007032
      f+1     :     0.000682
      f-1     :     0.000921
      f+2     :     0.000883
      f-2     :     0.002680
      f+3     :     0.000640
      f-3     :     0.000720
  1 N s       :     3.439504  s :     3.439504
      pz      :     1.284051  p :     3.829043
      px      :     1.278272
      py      :     1.266720
      dz2     :     0.008329  d :     0.061411
      dxz     :     0.014020
      dyz     :     0.013678
      dx2y2   :     0.010228
      dxy     :     0.015157
      f0      :     0.000290  f :     0.003251
      f+1     :     0.000322
      f-1     :     0.000358
      f+2     :     0.000381
      f-2     :     0.001243
      f+3     :     0.000309
      f-3     :     0.000348
  2 H s       :     0.805753  s :     0.805753
      pz      :     0.008554  p :     0.022560
      px      :     0.008021
      py      :     0.005985
  3 H s       :     0.802894  s :     0.802894
      pz      :     0.007264  p :     0.022457
      px      :     0.007460
      py      :     0.007734
  4 H s       :     0.813575  s :     0.813575
      pz      :     0.006952  p :     0.022466
      px      :     0.007688
      py      :     0.007825
  5 H s       :     0.621201  s :     0.621201
      pz      :     0.012880  p :     0.058982
      px      :     0.015106
      py      :     0.030996
  6 H s       :     0.684891  s :     0.684891
      pz      :     0.013178  p :     0.038945
      px      :     0.010895
      py      :     0.014872
  7 H s       :     0.685564  s :     0.685564
      pz      :     0.012697  p :     0.033565
      px      :     0.012573
      py      :     0.008295
  8 Pbs       :     3.954500  s :     3.954500
      pz      :     2.325600  p :     7.111031
      px      :     2.404469
      py      :     2.380963
      dz2     :     2.021336  d :    10.088453
      dxz     :     2.024291
      dyz     :     2.005615
      dx2y2   :     2.014707
      dxy     :     2.022503
      f0      :     0.014304  f :     0.071177
      f+1     :     0.013631
      f-1     :     0.008854
      f+2     :     0.008640
      f-2     :     0.005641
      f+3     :     0.010022
      f-3     :     0.010085
  9 Cls       :     5.954551  s :     5.954551
      pz      :     3.904058  p :    11.415234
      px      :     3.657186
      py      :     3.853991
      dz2     :     0.010756  d :     0.057405
      dxz     :     0.010971
      dyz     :     0.008632
      dx2y2   :     0.014970
      dxy     :     0.012077
      f0      :     0.000464  f :     0.003495
      f+1     :     0.000584
      f-1     :     0.000396
      f+2     :     0.000479
      f-2     :     0.000402
      f+3     :     0.000638
      f-3     :     0.000532
 10 Cls       :     5.990639  s :     5.990639
      pz      :     3.978041  p :    11.623909
      px      :     3.708165
      py      :     3.937703
      dz2     :     0.007555  d :     0.037761
      dxz     :     0.007500
      dyz     :     0.007482
      dx2y2   :     0.007584
      dxy     :     0.007640
      f0      :     0.000368  f :     0.002572
      f+1     :     0.000368
      f-1     :     0.000367
      f+2     :     0.000365
      f-2     :     0.000365
      f+3     :     0.000368
      f-3     :     0.000372
 11 Cls       :     5.953949  s :     5.953949
      pz      :     3.702595  p :    11.444291
      px      :     3.922029
      py      :     3.819668
      dz2     :     0.017900  d :     0.066113
      dxz     :     0.011151
      dyz     :     0.011779
      dx2y2   :     0.015082
      dxy     :     0.010202
      f0      :     0.000711  f :     0.004312
      f+1     :     0.000538
      f-1     :     0.000655
      f+2     :     0.000544
      f-2     :     0.000464
      f+3     :     0.000567
      f-3     :     0.000833


                     *******************************
                     * LOEWDIN POPULATION ANALYSIS *
                     *******************************

----------------------
LOEWDIN ATOMIC CHARGES
----------------------
   0 C :   -0.283982
   1 N :    0.059007
   2 H :    0.133005
   3 H :    0.132264
   4 H :    0.128197
   5 H :    0.087568
   6 H :    0.163450
   7 H :    0.197764
   8 Pb:    0.328971
   9 Cl:   -0.170245
  10 Cl:   -0.646060
  11 Cl:   -0.129938

-------------------------------
LOEWDIN REDUCED ORBITAL CHARGES
-------------------------------
  0 C s       :     2.854811  s :     2.854811
      pz      :     1.032781  p :     3.086664
      px      :     1.046181
      py      :     1.007702
      dz2     :     0.033125  d :     0.304039
      dxz     :     0.075863
      dyz     :     0.080203
      dx2y2   :     0.030822
      dxy     :     0.084027
      f0      :     0.005660  f :     0.038468
      f+1     :     0.004246
      f-1     :     0.006039
      f+2     :     0.004313
      f-2     :     0.007371
      f+3     :     0.005107
      f-3     :     0.005731
  1 N s       :     3.009424  s :     3.009424
      pz      :     1.238828  p :     3.741085
      px      :     1.241087
      py      :     1.261170
      dz2     :     0.020185  d :     0.179231
      dxz     :     0.044917
      dyz     :     0.044751
      dx2y2   :     0.024552
      dxy     :     0.044827
      f0      :     0.001670  f :     0.011253
      f+1     :     0.001315
      f-1     :     0.001670
      f+2     :     0.001207
      f-2     :     0.002182
      f+3     :     0.001423
      f-3     :     0.001787
  2 H s       :     0.802348  s :     0.802348
      pz      :     0.023802  p :     0.064647
      px      :     0.022446
      py      :     0.018398
  3 H s       :     0.803284  s :     0.803284
      pz      :     0.020253  p :     0.064452
      px      :     0.022918
      py      :     0.021281
  4 H s       :     0.807314  s :     0.807314
      pz      :     0.021337  p :     0.064489
      px      :     0.021577
      py      :     0.021575
  5 H s       :     0.705794  s :     0.705794
      pz      :     0.043970  p :     0.206637
      px      :     0.048437
      py      :     0.114230
  6 H s       :     0.720192  s :     0.720192
      pz      :     0.037654  p :     0.116358
      px      :     0.035840
      py      :     0.042864
  7 H s       :     0.701048  s :     0.701048
      pz      :     0.037645  p :     0.101188
      px      :     0.035509
      py      :     0.028035
  8 Pbs       :     3.834558  s :     3.834558
      pz      :     2.427690  p :     7.365050
      px      :     2.537441
      py      :     2.399919
      dz2     :     2.116297  d :    10.339283
      dxz     :     2.066667
      dyz     :     2.022455
      dx2y2   :     2.083741
      dxy     :     2.050124
      f0      :     0.031914  f :     0.132137
      f+1     :     0.028952
      f-1     :     0.012977
      f+2     :     0.012971
      f-2     :     0.006124
      f+3     :     0.023476
      f-3     :     0.015724
  9 Cls       :     5.767041  s :     5.767041
      pz      :     3.865814  p :    11.328392
      px      :     3.647620
      py      :     3.814958
      dz2     :     0.013818  d :     0.070435
      dxz     :     0.010880
      dyz     :     0.009324
      dx2y2   :     0.024461
      dxy     :     0.011953
      f0      :     0.000467  f :     0.004378
      f+1     :     0.000884
      f-1     :     0.000405
      f+2     :     0.000521
      f-2     :     0.000420
      f+3     :     0.001123
      f-3     :     0.000557
 10 Cls       :     5.985470  s :     5.985470
      pz      :     3.978631  p :    11.620264
      px      :     3.704121
      py      :     3.937512
      dz2     :     0.007552  d :     0.037755
      dxz     :     0.007503
      dyz     :     0.007483
      dx2y2   :     0.007578
      dxy     :     0.007639
      f0      :     0.000368  f :     0.002571
      f+1     :     0.000368
      f-1     :     0.000367
      f+2     :     0.000365
      f-2     :     0.000365
      f+3     :     0.000368
      f-3     :     0.000371
 11 Cls       :     5.744726  s :     5.744726
      pz      :     3.683107  p :    11.291049
      px      :     3.886115
      py      :     3.721827
      dz2     :     0.027398  d :     0.087796
      dxz     :     0.012286
      dyz     :     0.013255
      dx2y2   :     0.023103
      dxy     :     0.011754
      f0      :     0.001167  f :     0.006367
      f+1     :     0.000662
      f-1     :     0.001143
      f+2     :     0.000693
      f-2     :     0.000508
      f+3     :     0.000722
      f-3     :     0.001473


                      *****************************
                      * MAYER POPULATION ANALYSIS *
                      *****************************

  NA   - Mulliken gross atomic population
  ZA   - Total nuclear charge
  QA   - Mulliken gross atomic charge
  VA   - Mayer's total valence
  BVA  - Mayer's bonded valence
  FA   - Mayer's free valence

  ATOM       NA         ZA         QA         VA         BVA        FA
  0 C      6.2745     6.0000    -0.2745     3.8734     3.7598     0.1137
  1 N      7.3332     7.0000    -0.3332     3.3965     3.2520     0.1445
  2 H      0.8283     1.0000     0.1717     0.9665     0.9483     0.0182
  3 H      0.8254     1.0000     0.1746     0.9603     0.9423     0.0180
  4 H      0.8360     1.0000     0.1640     0.9633     0.9450     0.0184
  5 H      0.6802     1.0000     0.3198     0.9629     0.9434     0.0195
  6 H      0.7238     1.0000     0.2762     0.9748     0.9536     0.0212
  7 H      0.7191     1.0000     0.2809     0.9370     0.9157     0.0213
  8 Pb    21.2252    22.0000     0.7748     2.2888     1.9161     0.3727
  9 Cl    17.4307    17.0000    -0.4307     1.1910     0.9274     0.2637
 10 Cl    17.6549    17.0000    -0.6549     0.8199     0.5465     0.2734
 11 Cl    17.4687    17.0000    -0.4687     1.1361     0.8743     0.2618

  Mayer bond orders larger than 0.1
B(  0-C ,  1-N ) :   0.8828 B(  0-C ,  2-H ) :   0.9481 B(  0-C ,  3-H ) :   0.9484 
B(  0-C ,  4-H ) :   0.9512 B(  1-N ,  5-H ) :   0.7055 B(  1-N ,  6-H ) :   0.8228 
B(  1-N ,  7-H ) :   0.8650 B(  5-H , 11-Cl) :   0.2435 B(  6-H ,  9-Cl) :   0.1435 
B(  8-Pb,  9-Cl) :   0.7875 B(  8-Pb, 10-Cl) :   0.5003 B(  8-Pb, 11-Cl) :   0.6029 



-------
TIMINGS
-------

Total time                :  846.253 sec
Integral trafo            :    3.100 sec (  0.4%)
I/O of integrals          :    0.510 sec (  0.1%)
K(i,j) Operators          :   11.121 sec (  1.3%)
T(i,j) pair energies      :    1.604 sec (  0.2%)
V-calculation             :    0.014 sec (  0.0%)
V**(-1/2)                 :    0.034 sec (  0.0%)
Gamma(ia|P)               :   10.811 sec (  1.3%)
Gamma-Trafo               :    1.469 sec (  0.2%)
D(virtual)                :    4.807 sec (  0.6%)
D(internal)               :    5.218 sec (  0.6%)
W(virtual)                :    9.619 sec (  1.1%)
W(internal)               :   18.219 sec (  2.2%)
L(virtual)                :    6.420 sec (  0.8%)
L(internal)               :    0.229 sec (  0.0%)
G(D)                      :   17.061 sec (  2.0%)
G(Z)                      :   17.084 sec (  2.0%)
Z-Vector Solution         :  596.877 sec ( 70.5%)
Z-Vector Solution         :  596.877 sec ( 70.5%)
3-Index Derivative 
+ Separable RIJ part      :    6.030 sec (  0.7%)
2-Index Derivative 
+ Separable RIJ part      :    0.050 sec (  0.0%)
Separable Gradient (COSX) :  133.283 sec ( 15.7%)


---------------------------------------
MP2 TOTAL ENERGY:    -1669.486898584 Eh
---------------------------------------

The final MP2 gradient
  0:  -0.00218384  -0.00517731   0.00378827
  1:   0.00007438  -0.03934028   0.03243312
  2:   0.00376176  -0.00021672   0.00386734
  3:  -0.00236029   0.00313579   0.00280921
  4:   0.00161105   0.00204703  -0.00376669
  5:  -0.00717216  -0.00533783  -0.00367765
  6:  -0.00273256  -0.00668548  -0.01105317
  7:  -0.01161684  -0.00510615  -0.01201490
  8:   0.00516207   0.00470136  -0.00700959
  9:   0.00776209  -0.00566118   0.00313180
 10:  -0.01627688   0.00712731  -0.00201093
 11:   0.02391014   0.05042905  -0.00637083

-----------------------------------
NORM OF THE MP2 GRADIENT:  0.083470
-----------------------------------

Entering the calculation of the dispersion correction...

Checking the input atom types...

Done


-------------------------------------------------------------------------------
                          DFT DISPERSION CORRECTION                            
                                                                               
                                DFTD3 V2.1  Rev 6                               
                          USING Becke-Johnson damping                          
-------------------------------------------------------------------------------
The B2PLYP functional is recognized
Active option DFTDOPT                   ...         4   

molecular C6(AA) [au] = 4940.732718 


            DFT-D V3
 parameters
 s6 scaling factor         :     0.6400 
 a1 scaling factor         :     0.3065 
 s8 scaling factor         :     0.9147 
 a2 scaling factor         :     5.0570 
 ad hoc parameters k1-k3   :    16.0000     1.3333    -4.0000 

 Edisp/kcal,au: -7.328705969212  -0.011679035123 
 E6   /kcal   :  -3.404330126 
 E8   /kcal   :  -3.924375843 
 % E8         :  53.548005056 

-------------------------   ----------------
Dispersion correction           -0.011679035
-------------------------   ----------------


-------------------------   --------------------
FINAL SINGLE POINT ENERGY     -1669.498577618910
-------------------------   --------------------


                            ***************************************
                            *     ORCA property calculations      *
                            ***************************************


  WARNING: The energy has been calculated at the MP2 level but the densities
           used in the property calculations are still SCF densities
           MP2 response densities have not been calculated 
           use %mp2 Density relaxed end
           or  %mp2 Density unrelaxed end

                                    ---------------------
                                    Active property flags
                                    ---------------------
   (+) Dipole Moment


------------------------------------------------------------------------------
                       ORCA ELECTRIC PROPERTIES CALCULATION
------------------------------------------------------------------------------

Dipole Moment Calculation                       ... on
Quadrupole Moment Calculation                   ... off
Polarizability Calculation                      ... off
GBWName                                         ... PbMACl3_mp2_14.orca.gbw
Electron density file                           ... PbMACl3_mp2_14.orca.scfp.tmp

-------------
DIPOLE MOMENT
-------------
                                X             Y             Z
Electronic contribution:    -19.77289    -100.44645     -74.18771
Nuclear contribution   :     24.70167      99.85676      75.48845
                        -----------------------------------------
Total Dipole Moment    :      4.92878      -0.58969       1.30074
                        -----------------------------------------
Magnitude (a.u.)       :      5.13152
Magnitude (Debye)      :     13.04330


                         *** MP2 UNRELAXED DENSITY ***

------------------------------------------------------------------------------
                       ORCA ELECTRIC PROPERTIES CALCULATION
------------------------------------------------------------------------------

Dipole Moment Calculation                       ... on
Quadrupole Moment Calculation                   ... off
Polarizability Calculation                      ... off
GBWName                                         ... PbMACl3_mp2_14.orca.gbw
Electron density file                           ... PbMACl3_mp2_14.orca.pmp2ur

-------------
DIPOLE MOMENT
-------------
                                X             Y             Z
Electronic contribution:    -19.90277    -100.34448     -74.18609
Nuclear contribution   :     24.70167      99.85676      75.48845
                        -----------------------------------------
Total Dipole Moment    :      4.79890      -0.48772       1.30236
                        -----------------------------------------
Magnitude (a.u.)       :      4.99635
Magnitude (Debye)      :     12.69970


                           *** MP2 RELAXED DENSITY ***

------------------------------------------------------------------------------
                       ORCA ELECTRIC PROPERTIES CALCULATION
------------------------------------------------------------------------------

Dipole Moment Calculation                       ... on
Quadrupole Moment Calculation                   ... off
Polarizability Calculation                      ... off
GBWName                                         ... PbMACl3_mp2_14.orca.gbw
Electron density file                           ... PbMACl3_mp2_14.orca.pmp2re

-------------
DIPOLE MOMENT
-------------
                                X             Y             Z
Electronic contribution:    -20.48865    -100.02170     -74.28781
Nuclear contribution   :     24.70167      99.85676      75.48845
                        -----------------------------------------
Total Dipole Moment    :      4.21302      -0.16494       1.20064
                        -----------------------------------------
Magnitude (a.u.)       :      4.38386
Magnitude (Debye)      :     11.14290


Timings for individual modules:

Sum of individual times         ...     1183.762 sec (=  19.729 min)
GTO integral calculation        ...        3.948 sec (=   0.066 min)   0.3 %
SCF iterations                  ...      332.133 sec (=   5.536 min)  28.1 %
MP2 module                      ...      847.681 sec (=  14.128 min)  71.6 %
                             ****ORCA TERMINATED NORMALLY****
TOTAL RUN TIME: 0 days 0 hours 19 minutes 45 seconds 481 msec
