
                                 *****************
                                 * O   R   C   A *
                                 *****************

           --- An Ab Initio, DFT and Semiempirical electronic structure package ---

                  #######################################################
                  #                        -***-                        #
                  #  Department of molecular theory and spectroscopy    #
                  #              Directorship: Frank Neese              #
                  # Max Planck Institute for Chemical Energy Conversion #
                  #                  D-45470 Muelheim/Ruhr              #
                  #                       Germany                       #
                  #                                                     #
                  #                  All rights reserved                #
                  #                        -***-                        #
                  #######################################################


                         Program Version 3.0.3 - RELEASE   -


 With contributions from (in alphabetic order):
   Ute Becker             : Parallelization
   Dmytro Bykov           : SCF Hessian
   Dmitry Ganyushin       : Spin-Orbit,Spin-Spin,Magnetic field MRCI
   Andreas Hansen         : Spin unrestricted coupled pair/coupled cluster methods
   Dimitrios Liakos       : Extrapolation schemes; parallel MDCI
   Robert Izsak           : Overlap fitted RIJCOSX, COSX-SCS-MP3
   Christian Kollmar      : KDIIS, OOCD, Brueckner-CCSD(T), CCSD density
   Simone Kossmann        : Meta GGA functionals, TD-DFT gradient, OOMP2, MP2 Hessian
   Taras Petrenko         : DFT Hessian,TD-DFT gradient, ASA and ECA modules, normal mode analysis, Resonance Raman, ABS, FL, XAS/XES, NRVS
   Christoph Reimann      : Effective Core Potentials
   Michael Roemelt        : Restricted open shell CIS
   Christoph Riplinger    : Improved optimizer, TS searches, QM/MM, DLPNO-CCSD
   Barbara Sandhoefer     : DKH picture change effects
   Igor Schapiro          : Molecular dynamics
   Kantharuban Sivalingam : CASSCF convergence, NEVPT2
   Boris Wezisla          : Elementary symmetry handling
   Frank Wennmohs         : Technical directorship


 We gratefully acknowledge several colleagues who have allowed us to
 interface, adapt or use parts of their codes:
   Stefan Grimme, W. Hujo, H. Kruse, T. Risthaus : VdW corrections, initial TS optimization,
                                                   DFT functionals, gCP
   Ed Valeev                                     : LibInt (2-el integral package), F12 methods
   Garnet Chan, S. Sharma, R. Olivares           : DMRG
   Ulf Ekstrom                                   : XCFun DFT Library
   Mihaly Kallay                                 : mrcc  (arbitrary order and MRCC methods)
   Andreas Klamt, Michael Diedenhofen            : otool_cosmo (COSMO solvation model)
   Frank Weinhold                                : gennbo (NPA and NBO analysis)
   Christopher J. Cramer and Donald G. Truhlar   : smd solvation model


 Your calculation uses the libint2 library for the computation of 2-el integrals
 For citations please refer to: http://libint.valeyev.net

 This ORCA versions uses:
   CBLAS   interface :  Fast vector & matrix operations
   LAPACKE interface :  Fast linear algebra routines
   SCALAPACK package :  Parallel linear algebra routines


Your calculation utilizes the basis: Ahlrichs-TZV
Cite in your paper:
H - Kr: A. Schaefer, H. Horn and R. Ahlrichs, J. Chem. Phys. 97, 2571 (1992).

The def2-TZV basis will be loaded
Cite in your paper:
 	F. Weigend, R. Ahlrichs, Phys. Chem. Chem. Phys. 2005, 7, 3297.

Your calculation utilizes the atom-pairwise dispersion correction
with the Becke-Johnson damping scheme (D3BJ)
Cite in your paper:
S.Grimme, S.Ehrlich, L.Goerigk, J Comput Chem, (2011), 32, 1456–1465 
S.Grimme, J.Antony, S.Ehrlich and H.Krieg, J.Chem.Phys., 132, (2010), 154104 
   

================================================================================
                                        WARNINGS
                       Please study these warnings very carefully!
================================================================================

WARNING: The RI method has been chosen with no auxiliary basis (AUX or GTOAUX in BASIS block)
        Standard TZV/J expansion basis used (GTOAUX=TZV_J)

Now building the actual basis set
cite the ECPs for Pb [SD(60,MDF)] as follows:
  B. Metz, H. Stoll, M. Dolg, J. Chem. Phys. 113, 2563 (2000).

ECP parameters for Pb [SD(60,MDF)] have been obtained from:
  pseudopotential library of the Stuttgart/Cologne group
  http://www.theochem.uni-stuttgart.de/pseudopotentials/

cite the ECP basis sets for Pb [DEF2-TZVP] as follows:
  F. Weigend, R. Ahlrichs; Phys. Chem. Chem. Phys. 7, 3297(2005).

ECP basis sets for Pb [DEF2-TZVP] have been obtained from:
  Turbomole basis set library
  ftp://ftp.chemie.uni-karlsruhe.de/pub/basen/



INFO   : the flag for use of LIBINT has been found!

================================================================================
                                       INPUT FILE
================================================================================
NAME = PbMACl3_mp2_3.orca
|  1> ! RIJCOSX RI-B2PLYP D3BJ def2-TZVP ECP{def2-TZVP} TIGHTSCF Grid5 FinalGrid6 SlowConv MORead
|  2> %method
|  3>  RunTyp Gradient
|  4>  end
|  5> %maxcore 1000
|  6> %moinp "previous.gbw"
|  7> *xyz 0 1
|  8> C 2.905719 3.576013 2.873338
|  9> N 2.134625 2.614408 2.046990
| 10> H 3.548796 3.021424 3.560517
| 11> H 2.209179 4.197444 3.440826
| 12> H 3.515705 4.204875 2.220874
| 13> H 1.516852 1.975028 2.601630
| 14> H 2.717740 1.973704 1.464858
| 15> H 1.486857 3.059076 1.361735
| 16> Pb 0.108626 0.131547 0.209487
| 17> Cl 2.393401 0.268387 0.089874
| 18> Cl 0.050164 2.735046 -0.108798
| 19> Cl -0.158586 0.320768 2.851419
| 20> *
| 21> 
| 22>                          ****END OF INPUT****
================================================================================

                     *******************************
                     * Energy+Gradient Calculation *
                     *******************************

---------------------------------
CARTESIAN COORDINATES (ANGSTROEM)
---------------------------------
  C      2.905719    3.576013    2.873338
  N      2.134625    2.614408    2.046990
  H      3.548796    3.021424    3.560517
  H      2.209179    4.197444    3.440826
  H      3.515705    4.204875    2.220874
  H      1.516852    1.975028    2.601630
  H      2.717740    1.973704    1.464858
  H      1.486857    3.059076    1.361735
  Pb     0.108626    0.131547    0.209487
  Cl     2.393401    0.268387    0.089874
  Cl     0.050164    2.735046   -0.108798
  Cl    -0.158586    0.320768    2.851419

----------------------------
CARTESIAN COORDINATES (A.U.)
----------------------------
  NO LB      ZA    FRAG    MASS        X           Y           Z
   0 C     6.0000    0    12.011          5.491013132131525          6.757685221342137          5.429821910189021
   1 N     7.0000    0    14.007          4.033856648621652          4.940515122332791          3.868250498875463
   2 H     1.0000    0     1.008          6.706252545155202          5.709663894456884          6.728402025170893
   3 H     1.0000    0     1.008          4.174743290810016          7.932019622470954          6.502218814475724
   4 H     1.0000    0     1.008          6.643719617657614          7.946062177372124          4.196843637946225
   5 H     1.0000    0     1.008          2.866434865690719          3.732262026826222          4.916368201793546
   6 H     1.0000    0     1.008          5.135784303203143          3.729760029424910          2.768180445083617
   7 H     1.0000    0     1.008          2.809752530303751          5.780815862851287          2.573306216975256
   8 Pb   22.0000*   0   207.200  0.205273391023330  0.248587803738939  0.395873058616761
   9 Cl   17.0000    0    35.453          4.522872418653257          0.507177927904723          0.169837246560039
  10 Cl   17.0000    0    35.453          0.094796221782026          5.168487903676784         -0.205598423918364
  11 Cl   17.0000    0    35.453         -0.299684108674036          0.606163672525652          5.388401003059601
* core charge reduced due to ECP

--------------------------------
INTERNAL COORDINATES (ANGSTROEM)
--------------------------------
 C      0   0   0   0.000000     0.000     0.000
 N      1   0   0   1.483955     0.000     0.000
 H      1   2   0   1.092397   109.099     0.000
 H      1   2   3   1.092423   109.061   240.173
 H      1   2   3   1.092364   109.305   120.114
 H      2   1   3   1.047891   114.015    60.210
 H      2   1   3   1.043744   114.712   299.789
 H      2   1   3   1.042549   114.361   179.707
 Pb     6   2   1   3.332247   101.931   179.910
 Cl     7   2   1   2.214471   137.493   176.540
 Cl     8   2   1   2.081237   145.784   181.968
 Cl     6   2   1   2.367713   154.068   172.122

---------------------------
INTERNAL COORDINATES (A.U.)
---------------------------
 C      0   0   0   0.000000     0.000     0.000
 N      1   0   0   2.804268     0.000     0.000
 H      1   2   0   2.064332   109.099     0.000
 H      1   2   3   2.064379   109.061   240.173
 H      1   2   3   2.064269   109.305   120.114
 H      2   1   3   1.980227   114.015    60.210
 H      2   1   3   1.972391   114.712   299.789
 H      2   1   3   1.970131   114.361   179.707
 Pb     6   2   1   6.297034   101.931   179.910
 Cl     7   2   1   4.184744   137.493   176.540
 Cl     8   2   1   3.932969   145.784   181.968
 Cl     6   2   1   4.474328   154.068   172.122

---------------------
BASIS SET INFORMATION
---------------------
There are 5 groups of distinct atoms

 Group   1 Type C   : 11s6p2d1f contracted to 5s3p2d1f pattern {62111/411/11/1}
 Group   2 Type N   : 11s6p2d1f contracted to 5s3p2d1f pattern {62111/411/11/1}
 Group   3 Type H   : 5s1p contracted to 3s1p pattern {311/1}
 Group   4 Type Pb  : 10s9p8d2f contracted to 6s5p3d2f pattern {421111/33111/611/11}
 Group   5 Type Cl  : 14s9p3d1f contracted to 5s5p2d1f pattern {73211/51111/21/1}

Atom   0C    basis set group =>   1
Atom   1N    basis set group =>   2
Atom   2H    basis set group =>   3
Atom   3H    basis set group =>   3
Atom   4H    basis set group =>   3
Atom   5H    basis set group =>   3
Atom   6H    basis set group =>   3
Atom   7H    basis set group =>   3
Atom   8Pb   basis set group =>   4
Atom   9Cl   basis set group =>   5
Atom  10Cl   basis set group =>   5
Atom  11Cl   basis set group =>   5
-------------------------------
AUXILIARY BASIS SET INFORMATION
-------------------------------
There are 5 groups of distinct atoms

 Group   1 Type C   : 12s5p4d2f1g contracted to 6s4p3d1f1g pattern {711111/2111/211/2/1}
 Group   2 Type N   : 12s5p4d2f1g contracted to 6s4p3d1f1g pattern {711111/2111/211/2/1}
 Group   3 Type H   : 5s2p1d contracted to 3s1p1d pattern {311/2/1}
 Group   4 Type Pb  : 31s12p8d6f3g contracted to 31s12p8d6f3g pattern {1111111111111111111111111111111/111111111111/11111111/111111/111}
 Group   5 Type Cl  : 14s5p5d2f1g contracted to 8s4p3d1f1g pattern {71111111/2111/311/2/1}

Atom   0C    basis set group =>   1
Atom   1N    basis set group =>   2
Atom   2H    basis set group =>   3
Atom   3H    basis set group =>   3
Atom   4H    basis set group =>   3
Atom   5H    basis set group =>   3
Atom   6H    basis set group =>   3
Atom   7H    basis set group =>   3
Atom   8Pb   basis set group =>   4
Atom   9Cl   basis set group =>   5
Atom  10Cl   basis set group =>   5
Atom  11Cl   basis set group =>   5

-------------------------
ECP PARAMETER INFORMATION
-------------------------

 Group 1, Type Pb ECP SD(60,MDF) (replacing 60 core electrons, lmax=5)

Atom   8Pb   ECP group =>   1


------------------------------------------------------------------------------
                           ORCA GTO INTEGRAL CALCULATION
                           -- RI-GTO INTEGRALS CHOSEN --
------------------------------------------------------------------------------

                         BASIS SET STATISTICS AND STARTUP INFO

Gaussian basis set:
 # of primitive gaussian shells          ...  186
 # of primitive gaussian functions       ...  420
 # of contracted shells                  ...  101
 # of contracted basis functions         ...  259
 Highest angular momentum                ...    3
 Maximum contraction depth               ...    7
Auxiliary gaussian basis set:
 # of primitive gaussian shells          ...  237
 # of primitive gaussian functions       ...  643
 # of contracted shells                  ...  171
 # of contracted aux-basis functions     ...  493
 Highest angular momentum                ...    4
 Maximum contraction depth               ...    7
Ratio of auxiliary to basis functions    ...  1.90
Integral package used                  ... LIBINT
 One Electron integrals                  
   ECP integrals                         ... done
 Ordering auxiliary basis shells         ... done
 Integral threshhold             Thresh  ...  2.500e-11
 Primitive cut-off               TCut    ...  2.500e-12
 Pre-screening matrix                    ... done
 Shell pair data                         ... 
 Ordering of the shell pairs             ... done (   0.001 sec) 4434 of 5151 pairs
 Determination of significant pairs      ... done (   0.000 sec)
 Creation of shell pair data             ... done (   0.002 sec)
 Storage of shell pair data              ... done (   0.002 sec)
 Shell pair data done in (   0.004 sec)
 Computing two index integrals           ... done
 Cholesky decomposition of the V-matrix  ... done


Timings:
 Total evaluation time                   ...   0.813 sec (  0.014 min)
 One electron matrix time                ...   0.365 sec (  0.006 min) = 44.9%
 Schwartz matrix evaluation time         ...   0.383 sec (  0.006 min) = 47.1%
 Two index repulsion integral time       ...   0.011 sec (  0.000 min) =  1.3%
 Cholesky decomposition of V             ...   0.012 sec (  0.000 min) =  1.4%
 Three index repulsion integral time     ...   0.000 sec (  0.000 min) =  0.0%

-------------------------------------------------------------------------------
                                 ORCA SCF
-------------------------------------------------------------------------------

------------
SCF SETTINGS
------------
Hamiltonian:
 Density Functional     Method          .... DFT(GTOs)
 Exchange Functional    Exchange        .... B88
   X-Alpha parameter    XAlpha          ....  0.666667
   Becke's b parameter  XBeta           ....  0.004200
 Correlation Functional Correlation     .... LYP
 LDA part of GGA corr.  LDAOpt          .... VWN-3
 Gradients option       PostSCFGGA      .... off
 Hybrid DFT is turned on
   Fraction HF Exchange ScalHFX         ....  0.530000
   Scaling of DF-GGA-X  ScalDFX         ....  0.470000
   Scaling of DF-GGA-C  ScalDFC         ....  0.730000
   Scaling of DF-LDA-C  ScalLDAC        ....  0.730000
   Perturbative correction              ....  0.270000
 RI-approximation to the Coulomb term is turned on
   Number of auxiliary basis functions  .... 493
   RIJ-COSX (HFX calculated with COS-X)).... on


General Settings:
 Integral files         IntName         .... PbMACl3_mp2_3.orca
 Hartree-Fock type      HFTyp           .... RHF
 Total Charge           Charge          ....    0
 Multiplicity           Mult            ....    1
 Number of Electrons    NEL             ....   92
 Basis Dimension        Dim             ....  259
 Nuclear Repulsion      ENuc            ....    604.6689040427 Eh

Convergence Acceleration:
 DIIS                   CNVDIIS         .... on
   Start iteration      DIISMaxIt       ....     0
   Startup error        DIISStart       ....  0.200000
   # of expansion vecs  DIISMaxEq       ....     5
   Bias factor          DIISBfac        ....   1.050
   Max. coefficient     DIISMaxC        ....  10.000
 Newton-Raphson         CNVNR           .... off
 SOSCF                  CNVSOSCF        .... on
   Start iteration      SOSCFMaxIt      ....   150
   Startup grad/error   SOSCFStart      ....  0.001000
 Level Shifting         CNVShift        .... on
   Level shift para.    LevelShift      ....    0.2500
   Turn off err/grad.   ShiftErr        ....    0.0000
 Zerner damping         CNVZerner       .... off
 Static damping         CNVDamp         .... on
   Fraction old density DampFac         ....    0.8500
   Max. Damping (<1)    DampMax         ....    0.9800
   Min. Damping (>=0)   DampMin         ....    0.0000
   Turn off err/grad.   DampErr         ....    0.0300
 Fernandez-Rico         CNVRico         .... off

SCF Procedure:
 Maximum # iterations   MaxIter         ....   125
 SCF integral mode      SCFMode         .... Direct
   Integral package                     .... LIBINT
 Reset frequeny         DirectResetFreq ....    20
 Integral Threshold     Thresh          ....  2.500e-11 Eh
 Primitive CutOff       TCut            ....  2.500e-12 Eh

Convergence Tolerance:
 Convergence Check Mode ConvCheckMode   .... Total+1el-Energy
 Energy Change          TolE            ....  1.000e-08 Eh
 1-El. energy change                    ....  1.000e-05 Eh
 Orbital Gradient       TolG            ....  1.000e-05
 Orbital Rotation angle TolX            ....  1.000e-05
 DIIS Error             TolErr          ....  5.000e-07


Diagonalization of the overlap matrix:
Smallest eigenvalue                        ... 1.112e-03
Time for diagonalization                   ...    0.023 sec
Threshold for overlap eigenvalues          ... 1.000e-08
Number of eigenvalues below threshold      ... 0
Time for construction of square roots      ...    0.009 sec
Total time needed                          ...    0.033 sec

---------------------
INITIAL GUESS: MOREAD
---------------------
Guess MOs are being read from file: previous.gbw
Input Geometry matches current geometry (good)
Input basis set matches current basis set (good)
MOs were renormalized
MOs were reorthogonalized (Schmidt)
                      ------------------
                      INITIAL GUESS DONE (   0.1 sec)
                      ------------------
-------------------
DFT GRID GENERATION
-------------------

General Integration Accuracy     IntAcc      ...  5.010
Radial Grid Type                 RadialGrid  ... Gauss-Chebyshev
Angular Grid (max. acc.)         AngularGrid ... Lebedev-434
Angular grid pruning method      GridPruning ... 3 (G Style)
Weight generation scheme         WeightScheme... Becke
Basis function cutoff            BFCut       ...    1.0000e-11
Integration weight cutoff        WCut        ...    1.0000e-14
Grids for H and He will be reduced by one unit

# of grid points (after initial pruning)     ... 115882 (   0.1 sec)
# of grid points (after weights+screening)   ... 108759 (   0.4 sec)
nearest neighbour list constructed           ...    0.0 sec
Grid point re-assignment to atoms done       ...    0.1 sec
Grid point division into batches done        ...    1.1 sec
Reduced shell lists constructed in    3.5 sec

Total number of grid points                  ...   108759
Total number of batches                      ...     1706
Average number of points per batch           ...       63
Average number of grid points per atom       ...     9063
Average number of shells per batch           ...    54.42 (53.88%)
Average number of basis functions per batch  ...   143.50 (55.40%)
Average number of large shells per batch     ...    41.19 (75.69%)
Average number of large basis fcns per batch ...   106.24 (74.03%)
Maximum spatial batch extension              ...  30.22, 32.84, 31.99 au
Average spatial batch extension              ...   2.42,  2.42,  2.42 au

Time for grid setup =    4.029 sec

--------------------
COSX GRID GENERATION
--------------------

General Integration Accuracy     IntAcc      ...  3.340
Radial Grid Type                 RadialGrid  ... Gauss-Chebyshev
Angular Grid (max. acc.)         AngularGrid ... Lebedev-50
Angular grid pruning method      GridPruning ... 3 (G Style)
Weight generation scheme         WeightScheme... Becke
Basis function cutoff            BFCut       ...    1.0000e-11
Integration weight cutoff        WCut        ...    1.0000e-14
Grids for H and He will be reduced by one unit

# of grid points (after initial pruning)     ...   6578 (   0.0 sec)
# of grid points (after weights+screening)   ...   6169 (   0.0 sec)
nearest neighbour list constructed           ...    0.0 sec
Grid point re-assignment to atoms done       ...    0.0 sec
Grid point division into batches done        ...    0.0 sec
Reduced shell lists constructed in    0.2 sec

Total number of grid points                  ...     6169
Total number of batches                      ...      102
Average number of points per batch           ...       60
Average number of grid points per atom       ...      514
Average number of shells per batch           ...    66.11 (65.45%)
Average number of basis functions per batch  ...   177.70 (68.61%)
Average number of large shells per batch     ...    51.34 (77.66%)
Average number of large basis fcns per batch ...   135.22 (76.10%)
Maximum spatial batch extension              ...  29.93, 26.56, 31.04 au
Average spatial batch extension              ...   6.33,  6.37,  6.26 au

Overlap Fitting                  UseSFitting ... on
Constructing numerical overlap ... done (      0.1 sec)
Inverting numerical overlap    ... done (      0.0 sec)
Obtaining analytic overlap     ... done (      0.0 sec)
Final contraction and storage  ... done (      0.0 sec)


General Integration Accuracy     IntAcc      ...  3.670
Radial Grid Type                 RadialGrid  ... Gauss-Chebyshev
Angular Grid (max. acc.)         AngularGrid ... Lebedev-50
Angular grid pruning method      GridPruning ... 3 (G Style)
Weight generation scheme         WeightScheme... Becke
Basis function cutoff            BFCut       ...    1.0000e-11
Integration weight cutoff        WCut        ...    1.0000e-14
Grids for H and He will be reduced by one unit

# of grid points (after initial pruning)     ...   8124 (   0.0 sec)
# of grid points (after weights+screening)   ...   7605 (   0.0 sec)
nearest neighbour list constructed           ...    0.0 sec
Grid point re-assignment to atoms done       ...    0.0 sec
Grid point division into batches done        ...    0.0 sec
Reduced shell lists constructed in    0.2 sec

Total number of grid points                  ...     7605
Total number of batches                      ...      124
Average number of points per batch           ...       61
Average number of grid points per atom       ...      634
Average number of shells per batch           ...    65.26 (64.62%)
Average number of basis functions per batch  ...   174.93 (67.54%)
Average number of large shells per batch     ...    50.67 (77.64%)
Average number of large basis fcns per batch ...   132.48 (75.73%)
Maximum spatial batch extension              ...  30.86, 26.94, 30.86 au
Average spatial batch extension              ...   5.85,  5.93,  5.58 au

Overlap Fitting                  UseSFitting ... on
Constructing numerical overlap ... done (      0.1 sec)
Inverting numerical overlap    ... done (      0.0 sec)
Obtaining analytic overlap     ... done (      0.0 sec)
Final contraction and storage  ... done (      0.0 sec)


General Integration Accuracy     IntAcc      ...  4.010
Radial Grid Type                 RadialGrid  ... Gauss-Chebyshev
Angular Grid (max. acc.)         AngularGrid ... Lebedev-110
Angular grid pruning method      GridPruning ... 3 (G Style)
Weight generation scheme         WeightScheme... Becke
Basis function cutoff            BFCut       ...    1.0000e-11
Integration weight cutoff        WCut        ...    1.0000e-14
Grids for H and He will be reduced by one unit

# of grid points (after initial pruning)     ...  15170 (   0.0 sec)
# of grid points (after weights+screening)   ...  14353 (   0.0 sec)
nearest neighbour list constructed           ...    0.0 sec
Grid point re-assignment to atoms done       ...    0.0 sec
Grid point division into batches done        ...    0.0 sec
Reduced shell lists constructed in    0.4 sec

Total number of grid points                  ...    14353
Total number of batches                      ...      228
Average number of points per batch           ...       62
Average number of grid points per atom       ...     1196
Average number of shells per batch           ...    61.70 (61.09%)
Average number of basis functions per batch  ...   164.93 (63.68%)
Average number of large shells per batch     ...    47.61 (77.15%)
Average number of large basis fcns per batch ...   124.52 (75.50%)
Maximum spatial batch extension              ...  34.29, 30.36, 30.75 au
Average spatial batch extension              ...   4.92,  5.04,  4.87 au

Overlap Fitting                  UseSFitting ... on
Constructing numerical overlap ... done (      0.3 sec)
Inverting numerical overlap    ... done (      0.0 sec)
Obtaining analytic overlap     ... done (      0.0 sec)
Final contraction and storage  ... done (      0.0 sec)

Time for X-Grid setup             =    1.541 sec
--------------
SCF ITERATIONS
--------------
ITER       Energy         Delta-E        Max-DP      RMS-DP      [F,P]     Damp
               ***  Starting incremental Fock matrix formation  ***
  0  -1669.0115861963   0.000000000000 0.03754691  0.00025118  0.0680279 0.8500
  1  -1669.0143207046  -0.002734508223 0.03433104  0.00024369  0.0579019 0.8500
                               ***Turning on DIIS***
  2  -1669.0167305978  -0.002409893257 0.02949624  0.00021281  0.0492746 0.8500
  3  -1669.0187995634  -0.002068965598 0.02513323  0.00018084  0.0419258 0.8500
  4  -1669.0205788804  -0.001779316961 0.02173167  0.00015590  0.0356436 0.8500
  5  -1669.0221053858  -0.001526505409 0.01899192  0.00013659  0.0302836 0.8500
  6  -1669.0234201245  -0.001314738707 0.11010989  0.00079595  0.0257294 0.0000
                      *** Initiating the SOSCF procedure ***
                           *** Shutting down DIIS ***
                      *** Re-Reading the Fockian *** 
                      *** Removing any level shift *** 
ITER      Energy       Delta-E        Grad      Rot      Max-DP    RMS-DP
  7  -1669.03134325  -0.0079231209  0.000398  0.000398  0.003314  0.000032
               *** Restarting incremental Fock matrix formation ***
  8  -1669.03137211  -0.0000288636  0.000163  0.000510  0.001373  0.000018
  9  -1669.03137449  -0.0000023764  0.000064  0.000302  0.001096  0.000010
 10  -1669.03137473  -0.0000002457  0.000039  0.000061  0.000290  0.000003
 11  -1669.03137483  -0.0000000951  0.000007  0.000011  0.000032  0.000001
 12  -1669.03137484  -0.0000000121  0.000003  0.000007  0.000022  0.000000
                  ***Gradient check signals convergence***
              ***Rediagonalizing the Fockian in SOSCF/NRSCF***

               *****************************************************
               *                     SUCCESS                       *
               *           SCF CONVERGED AFTER  13 CYCLES          *
               *****************************************************

Old exchange energy                            =    -59.218392739 Eh
New exchange energy                            =    -59.221213155 Eh
Exchange energy change after final integration =     -0.002820416 Eh
Total energy after final integration           =  -1669.034195244 Eh
Final COS-X integration done in                =    31.085 sec

----------------
TOTAL SCF ENERGY
----------------

Total Energy       :        -1669.03419524 Eh          -45416.72939 eV

Components:
Nuclear Repulsion  :          604.66890404 Eh           16453.87738 eV
Electronic Energy  :        -2273.70309929 Eh          -61870.60677 eV

One Electron Energy:        -3580.27959735 Eh          -97424.36080 eV
Two Electron Energy:         1306.57649806 Eh           35553.75403 eV

Virial components:
Potential Energy   :        -3206.84572523 Eh          -87262.70853 eV
Kinetic Energy     :         1537.81152999 Eh           41845.97914 eV
Virial Ratio       :            2.08533079


DFT components:
N(Alpha)           :       46.000006765667 electrons
N(Beta)            :       46.000006765667 electrons
N(Total)           :       92.000013531335 electrons
E(X)               :      -52.587672334522 Eh       
E(C)               :       -2.609469326530 Eh       
E(XC)              :      -55.197141661052 Eh       

---------------
SCF CONVERGENCE
---------------

  Last Energy change         ...    9.6707e-09  Tolerance :   1.0000e-08
  Last MAX-Density change    ...    5.3957e-14  Tolerance :   1.0000e-07
  Last RMS-Density change    ...    5.4561e-16  Tolerance :   5.0000e-09
  Last Orbital Gradient      ...    3.4925e-07  Tolerance :   1.0000e-05
  Last Orbital Rotation      ...    1.0182e-06  Tolerance :   1.0000e-05

             **** THE GBW FILE WAS UPDATED (PbMACl3_mp2_3.orca.gbw) ****
             **** DENSITY FILE WAS UPDATED (PbMACl3_mp2_3.orca.scfp.tmp) ****
             **** ENERGY FILE WAS UPDATED (PbMACl3_mp2_3.orca.en.tmp) ****
----------------
ORBITAL ENERGIES
----------------

  NO   OCC          E(Eh)            E(eV) 
   0   2.0000    -102.876951     -2799.4241 
   1   2.0000    -102.843960     -2798.5264 
   2   2.0000    -102.837958     -2798.3631 
   3   2.0000     -14.964378      -407.2014 
   4   2.0000     -10.710908      -291.4586 
   5   2.0000      -9.887531      -269.0534 
   6   2.0000      -9.851588      -268.0753 
   7   2.0000      -9.844411      -267.8801 
   8   2.0000      -7.524751      -204.7589 
   9   2.0000      -7.522486      -204.6972 
  10   2.0000      -7.522192      -204.6892 
  11   2.0000      -7.488646      -203.7764 
  12   2.0000      -7.487124      -203.7350 
  13   2.0000      -7.486602      -203.7208 
  14   2.0000      -7.481517      -203.5824 
  15   2.0000      -7.479937      -203.5394 
  16   2.0000      -7.479574      -203.5296 
  17   2.0000      -5.791211      -157.5869 
  18   2.0000      -3.562903       -96.9515 
  19   2.0000      -3.562308       -96.9353 
  20   2.0000      -3.560697       -96.8915 
  21   2.0000      -1.140262       -31.0281 
  22   2.0000      -0.988977       -26.9114 
  23   2.0000      -0.959548       -26.1106 
  24   2.0000      -0.952016       -25.9057 
  25   2.0000      -0.951896       -25.9024 
  26   2.0000      -0.950482       -25.8639 
  27   2.0000      -0.900584       -24.5061 
  28   2.0000      -0.865225       -23.5440 
  29   2.0000      -0.855535       -23.2803 
  30   2.0000      -0.849186       -23.1075 
  31   2.0000      -0.668737       -18.1973 
  32   2.0000      -0.666048       -18.1241 
  33   2.0000      -0.601489       -16.3674 
  34   2.0000      -0.559216       -15.2170 
  35   2.0000      -0.522036       -14.2053 
  36   2.0000      -0.521212       -14.1829 
  37   2.0000      -0.399171       -10.8620 
  38   2.0000      -0.395356       -10.7582 
  39   2.0000      -0.386485       -10.5168 
  40   2.0000      -0.354819        -9.6551 
  41   2.0000      -0.349064        -9.4985 
  42   2.0000      -0.335707        -9.1351 
  43   2.0000      -0.333653        -9.0792 
  44   2.0000      -0.325607        -8.8602 
  45   2.0000      -0.298203        -8.1145 
  46   0.0000       0.013444         0.3658 
  47   0.0000       0.014030         0.3818 
  48   0.0000       0.034610         0.9418 
  49   0.0000       0.045007         1.2247 
  50   0.0000       0.086224         2.3463 
  51   0.0000       0.108871         2.9625 
  52   0.0000       0.112270         3.0550 
  53   0.0000       0.127977         3.4824 
  54   0.0000       0.134130         3.6499 
  55   0.0000       0.141907         3.8615 
  56   0.0000       0.146632         3.9901 
  57   0.0000       0.164614         4.4794 
  58   0.0000       0.175215         4.7678 
  59   0.0000       0.232401         6.3240 
  60   0.0000       0.239099         6.5062 
  61   0.0000       0.252357         6.8670 
  62   0.0000       0.257652         7.0111 
  63   0.0000       0.271063         7.3760 
  64   0.0000       0.274099         7.4586 
  65   0.0000       0.277915         7.5624 
  66   0.0000       0.286252         7.7893 
  67   0.0000       0.321285         8.7426 
  68   0.0000       0.329956         8.9786 
  69   0.0000       0.342805         9.3282 
  70   0.0000       0.382599        10.4110 
  71   0.0000       0.399218        10.8633 
  72   0.0000       0.406932        11.0732 
  73   0.0000       0.419148        11.4056 
  74   0.0000       0.427745        11.6395 
  75   0.0000       0.431997        11.7552 
  76   0.0000       0.452568        12.3150 
  77   0.0000       0.466457        12.6929 
  78   0.0000       0.469731        12.7820 
  79   0.0000       0.479549        13.0492 
  80   0.0000       0.483791        13.1646 
  81   0.0000       0.486785        13.2461 
  82   0.0000       0.503100        13.6901 
  83   0.0000       0.515682        14.0324 
  84   0.0000       0.523694        14.2504 
  85   0.0000       0.524087        14.2611 
  86   0.0000       0.535305        14.5664 
  87   0.0000       0.558343        15.1933 
  88   0.0000       0.569731        15.5032 
  89   0.0000       0.579002        15.7554 
  90   0.0000       0.585613        15.9353 
  91   0.0000       0.596702        16.2371 
  92   0.0000       0.599608        16.3162 
  93   0.0000       0.604727        16.4555 
  94   0.0000       0.613592        16.6967 
  95   0.0000       0.631838        17.1932 
  96   0.0000       0.643724        17.5166 
  97   0.0000       0.658604        17.9215 
  98   0.0000       0.675409        18.3788 
  99   0.0000       0.715750        19.4765 
 100   0.0000       0.724823        19.7234 
 101   0.0000       0.733991        19.9729 
 102   0.0000       0.765451        20.8290 
 103   0.0000       0.775271        21.0962 
 104   0.0000       0.783648        21.3241 
 105   0.0000       0.822678        22.3862 
 106   0.0000       0.852495        23.1976 
 107   0.0000       0.872321        23.7370 
 108   0.0000       0.876145        23.8411 
 109   0.0000       0.892147        24.2765 
 110   0.0000       0.906867        24.6771 
 111   0.0000       0.910485        24.7755 
 112   0.0000       0.932240        25.3676 
 113   0.0000       0.939314        25.5600 
 114   0.0000       0.966715        26.3056 
 115   0.0000       0.980988        26.6940 
 116   0.0000       1.010200        27.4889 
 117   0.0000       1.058303        28.7979 
 118   0.0000       1.068319        29.0704 
 119   0.0000       1.075554        29.2673 
 120   0.0000       1.097910        29.8757 
 121   0.0000       1.119923        30.4747 
 122   0.0000       1.137903        30.9639 
 123   0.0000       1.198804        32.6211 
 124   0.0000       1.212938        33.0057 
 125   0.0000       1.275711        34.7139 
 126   0.0000       1.303825        35.4789 
 127   0.0000       1.338128        36.4123 
 128   0.0000       1.368956        37.2512 
 129   0.0000       1.405063        38.2337 
 130   0.0000       1.495871        40.7047 
 131   0.0000       1.563277        42.5389 
 132   0.0000       1.585289        43.1379 
 133   0.0000       1.593297        43.3558 
 134   0.0000       1.597892        43.4809 
 135   0.0000       1.618501        44.0416 
 136   0.0000       1.731603        47.1193 
 137   0.0000       1.781012        48.4638 
 138   0.0000       1.796582        48.8875 
 139   0.0000       1.869903        50.8826 
 140   0.0000       1.890813        51.4516 
 141   0.0000       1.892174        51.4887 
 142   0.0000       1.908950        51.9452 
 143   0.0000       1.931781        52.5664 
 144   0.0000       1.939936        52.7883 
 145   0.0000       1.966803        53.5194 
 146   0.0000       1.971062        53.6353 
 147   0.0000       1.977507        53.8107 
 148   0.0000       1.995912        54.3115 
 149   0.0000       2.000391        54.4334 
 150   0.0000       2.004676        54.5500 
 151   0.0000       2.011439        54.7340 
 152   0.0000       2.024102        55.0786 
 153   0.0000       2.028934        55.2101 
 154   0.0000       2.065870        56.2152 
 155   0.0000       2.073410        56.4204 
 156   0.0000       2.087404        56.8011 
 157   0.0000       2.125894        57.8485 
 158   0.0000       2.131813        58.0096 
 159   0.0000       2.132710        58.0340 
 160   0.0000       2.150152        58.5086 
 161   0.0000       2.172368        59.1131 
 162   0.0000       2.175519        59.1989 
 163   0.0000       2.184893        59.4540 
 164   0.0000       2.200856        59.8883 
 165   0.0000       2.208584        60.0986 
 166   0.0000       2.218109        60.3578 
 167   0.0000       2.225198        60.5507 
 168   0.0000       2.232756        60.7564 
 169   0.0000       2.239332        60.9353 
 170   0.0000       2.244808        61.0843 
 171   0.0000       2.255297        61.3698 
 172   0.0000       2.263404        61.5904 
 173   0.0000       2.264721        61.6262 
 174   0.0000       2.267685        61.7069 
 175   0.0000       2.272120        61.8275 
 176   0.0000       2.286903        62.2298 
 177   0.0000       2.294598        62.4392 
 178   0.0000       2.318870        63.0997 
 179   0.0000       2.330103        63.4053 
 180   0.0000       2.356236        64.1164 
 181   0.0000       2.371459        64.5307 
 182   0.0000       2.373944        64.5983 
 183   0.0000       2.384800        64.8937 
 184   0.0000       2.385629        64.9163 
 185   0.0000       2.408708        65.5443 
 186   0.0000       2.416059        65.7443 
 187   0.0000       2.425166        65.9921 
 188   0.0000       2.437914        66.3390 
 189   0.0000       2.445234        66.5382 
 190   0.0000       2.461497        66.9807 
 191   0.0000       2.479422        67.4685 
 192   0.0000       2.484026        67.5938 
 193   0.0000       2.489612        67.7458 
 194   0.0000       2.501535        68.0702 
 195   0.0000       2.534353        68.9633 
 196   0.0000       2.553631        69.4878 
 197   0.0000       2.581880        70.2565 
 198   0.0000       2.602104        70.8069 
 199   0.0000       2.604332        70.8675 
 200   0.0000       2.624364        71.4126 
 201   0.0000       2.640594        71.8542 
 202   0.0000       2.672151        72.7129 
 203   0.0000       2.695120        73.3380 
 204   0.0000       2.758941        75.0746 
 205   0.0000       2.790287        75.9276 
 206   0.0000       2.806750        76.3755 
 207   0.0000       2.810238        76.4705 
 208   0.0000       2.821359        76.7731 
 209   0.0000       2.899201        78.8913 
 210   0.0000       2.945140        80.1413 
 211   0.0000       3.022007        82.2330 
 212   0.0000       3.129985        85.1712 
 213   0.0000       3.133640        85.2707 
 214   0.0000       3.224015        87.7299 
 215   0.0000       3.238754        88.1310 
 216   0.0000       3.294357        89.6440 
 217   0.0000       3.394223        92.3615 
 218   0.0000       3.411431        92.8298 
 219   0.0000       3.556589        96.7797 
 220   0.0000       3.579384        97.4000 
 221   0.0000       3.584509        97.5395 
 222   0.0000       3.772712       102.6607 
 223   0.0000       3.782054       102.9149 
 224   0.0000       3.924357       106.7872 
 225   0.0000       4.190891       114.0399 
 226   0.0000       4.198598       114.2497 
 227   0.0000       4.404272       119.8463 
 228   0.0000       4.446689       121.0006 
 229   0.0000       4.845667       131.8573 
 230   0.0000       4.847388       131.9041 
 231   0.0000       4.948750       134.6623 
 232   0.0000       4.962701       135.0420 
 233   0.0000       5.084329       138.3516 
 234   0.0000       5.107723       138.9882 
 235   0.0000       5.119136       139.2988 
 236   0.0000       5.312956       144.5729 
 237   0.0000       5.512776       150.0103 
 238   0.0000       5.524600       150.3320 
 239   0.0000       5.852886       159.2651 
 240   0.0000      11.044521       300.5367 
 241   0.0000      11.062325       301.0212 
 242   0.0000      11.071172       301.2619 
 243   0.0000      11.107648       302.2545 
 244   0.0000      11.125221       302.7327 
 245   0.0000      11.142653       303.2070 
 246   0.0000      11.158027       303.6254 
 247   0.0000      11.189965       304.4944 
 248   0.0000      11.284249       307.0600 
 249   0.0000      22.657594       616.5445 
 250   0.0000      25.201679       685.7726 
 251   0.0000      25.301348       688.4847 
 252   0.0000      25.485126       693.4855 
 253   0.0000      32.362312       880.6233 
 254   0.0000      35.541294       967.1278 
 255   0.0000      35.780331       973.6323 
 256   0.0000      35.821552       974.7540 
 257   0.0000      36.021238       980.1877 
 258   0.0000     123.631516      3364.1846 

                    ********************************
                    * MULLIKEN POPULATION ANALYSIS *
                    ********************************

-----------------------
MULLIKEN ATOMIC CHARGES
-----------------------
   0 C :   -0.252944
   1 N :   -0.299755
   2 H :    0.156345
   3 H :    0.161778
   4 H :    0.156615
   5 H :    0.284307
   6 H :    0.288728
   7 H :    0.289139
   8 Pb:    0.853566
   9 Cl:   -0.495790
  10 Cl:   -0.568665
  11 Cl:   -0.573323
Sum of atomic charges:   -0.0000000

--------------------------------
MULLIKEN REDUCED ORBITAL CHARGES
--------------------------------
  0 C s       :     3.273884  s :     3.273884
      pz      :     0.975054  p :     2.904085
      px      :     0.994125
      py      :     0.934906
      dz2     :     0.006736  d :     0.069004
      dxz     :     0.018499
      dyz     :     0.018061
      dx2y2   :     0.007558
      dxy     :     0.018150
      f0      :     0.000344  f :     0.005970
      f+1     :     0.000489
      f-1     :     0.000704
      f+2     :     0.000726
      f-2     :     0.002630
      f+3     :     0.000500
      f-3     :     0.000578
  1 N s       :     3.417471  s :     3.417471
      pz      :     1.281608  p :     3.832846
      px      :     1.280940
      py      :     1.270298
      dz2     :     0.005016  d :     0.047258
      dxz     :     0.012785
      dyz     :     0.011813
      dx2y2   :     0.005514
      dxy     :     0.012129
      f0      :     0.000122  f :     0.002181
      f+1     :     0.000160
      f-1     :     0.000200
      f+2     :     0.000211
      f-2     :     0.001153
      f+3     :     0.000158
      f-3     :     0.000176
  2 H s       :     0.821932  s :     0.821932
      pz      :     0.008339  p :     0.021723
      px      :     0.007732
      py      :     0.005652
  3 H s       :     0.816426  s :     0.816426
      pz      :     0.006951  p :     0.021796
      px      :     0.007369
      py      :     0.007476
  4 H s       :     0.821688  s :     0.821688
      pz      :     0.006733  p :     0.021698
      px      :     0.007371
      py      :     0.007594
  5 H s       :     0.678384  s :     0.678384
      pz      :     0.009346  p :     0.037309
      px      :     0.013834
      py      :     0.014129
  6 H s       :     0.671956  s :     0.671956
      pz      :     0.013773  p :     0.039316
      px      :     0.009747
      py      :     0.015797
  7 H s       :     0.666924  s :     0.666924
      pz      :     0.018621  p :     0.043938
      px      :     0.017475
      py      :     0.007841
  8 Pbs       :     3.882808  s :     3.882808
      pz      :     2.331101  p :     7.070319
      px      :     2.386054
      py      :     2.353163
      dz2     :     2.024997  d :    10.124814
      dxz     :     2.028219
      dyz     :     2.024273
      dx2y2   :     2.023519
      dxy     :     2.023807
      f0      :     0.014159  f :     0.068494
      f+1     :     0.009094
      f-1     :     0.007889
      f+2     :     0.008993
      f-2     :     0.000496
      f+3     :     0.011835
      f-3     :     0.016028
  9 Cls       :     5.944960  s :     5.944960
      pz      :     3.914318  p :    11.520353
      px      :     3.692213
      py      :     3.913822
      dz2     :     0.004182  d :     0.028544
      dxz     :     0.005443
      dyz     :     0.001470
      dx2y2   :     0.011945
      dxy     :     0.005504
      f0      :     0.000171  f :     0.001933
      f+1     :     0.000382
      f-1     :     0.000051
      f+2     :     0.000285
      f-2     :     0.000030
      f+3     :     0.000632
      f-3     :     0.000382
 10 Cls       :     5.955360  s :     5.955360
      pz      :     3.926830  p :    11.596795
      px      :     3.934786
      py      :     3.735179
      dz2     :     0.002603  d :     0.015828
      dxz     :     0.002233
      dyz     :     0.002246
      dx2y2   :     0.006677
      dxy     :     0.002069
      f0      :     0.000051  f :     0.000682
      f+1     :     0.000063
      f-1     :     0.000121
      f+2     :     0.000110
      f-2     :     0.000022
      f+3     :     0.000092
      f-3     :     0.000223
 11 Cls       :     5.958243  s :     5.958243
      pz      :     3.744504  p :    11.601084
      px      :     3.928528
      py      :     3.928052
      dz2     :     0.008027  d :     0.013461
      dxz     :     0.002225
      dyz     :     0.001993
      dx2y2   :     0.000271
      dxy     :     0.000945
      f0      :     0.000303  f :     0.000535
      f+1     :     0.000099
      f-1     :     0.000089
      f+2     :     0.000010
      f-2     :     0.000010
      f+3     :     0.000012
      f-3     :     0.000013


                     *******************************
                     * LOEWDIN POPULATION ANALYSIS *
                     *******************************

----------------------
LOEWDIN ATOMIC CHARGES
----------------------
   0 C :   -0.275515
   1 N :    0.086904
   2 H :    0.124061
   3 H :    0.126636
   4 H :    0.124177
   5 H :    0.179078
   6 H :    0.170602
   7 H :    0.154363
   8 Pb:   -0.093535
   9 Cl:   -0.034041
  10 Cl:   -0.256398
  11 Cl:   -0.306331

-------------------------------
LOEWDIN REDUCED ORBITAL CHARGES
-------------------------------
  0 C s       :     2.854088  s :     2.854088
      pz      :     1.032617  p :     3.082797
      px      :     1.043388
      py      :     1.006792
      dz2     :     0.028653  d :     0.301768
      dxz     :     0.079560
      dyz     :     0.081164
      dx2y2   :     0.031734
      dxy     :     0.080656
      f0      :     0.005269  f :     0.036862
      f+1     :     0.003930
      f-1     :     0.005734
      f+2     :     0.004294
      f-2     :     0.007001
      f+3     :     0.004903
      f-3     :     0.005732
  1 N s       :     3.000767  s :     3.000767
      pz      :     1.251494  p :     3.746488
      px      :     1.249670
      py      :     1.245324
      dz2     :     0.016733  d :     0.156504
      dxz     :     0.041289
      dyz     :     0.039913
      dx2y2   :     0.018444
      dxy     :     0.040125
      f0      :     0.001451  f :     0.009338
      f+1     :     0.001106
      f-1     :     0.001403
      f+2     :     0.001022
      f-2     :     0.001615
      f+3     :     0.001220
      f-3     :     0.001520
  2 H s       :     0.813754  s :     0.813754
      pz      :     0.022935  p :     0.062185
      px      :     0.021587
      py      :     0.017663
  3 H s       :     0.811043  s :     0.811043
      pz      :     0.019447  p :     0.062321
      px      :     0.022347
      py      :     0.020527
  4 H s       :     0.813668  s :     0.813668
      pz      :     0.020685  p :     0.062155
      px      :     0.020667
      py      :     0.020804
  5 H s       :     0.708979  s :     0.708979
      pz      :     0.031522  p :     0.111944
      px      :     0.039919
      py      :     0.040503
  6 H s       :     0.713633  s :     0.713633
      pz      :     0.039132  p :     0.115765
      px      :     0.032103
      py      :     0.044531
  7 H s       :     0.713447  s :     0.713447
      pz      :     0.054644  p :     0.132189
      px      :     0.051494
      py      :     0.026051
  8 Pbs       :     3.689877  s :     3.689877
      pz      :     2.471938  p :     7.588050
      px      :     2.614429
      py      :     2.501683
      dz2     :     2.160463  d :    10.602387
      dxz     :     2.101093
      dyz     :     2.073206
      dx2y2   :     2.177814
      dxy     :     2.089811
      f0      :     0.043583  f :     0.213220
      f+1     :     0.030715
      f-1     :     0.021420
      f+2     :     0.024407
      f-2     :     0.001234
      f+3     :     0.043121
      f-3     :     0.048740
  9 Cls       :     5.653908  s :     5.653908
      pz      :     3.823514  p :    11.315993
      px      :     3.669186
      py      :     3.823293
      dz2     :     0.010746  d :     0.059287
      dxz     :     0.006382
      dyz     :     0.002519
      dx2y2   :     0.031283
      dxy     :     0.008357
      f0      :     0.000249  f :     0.004853
      f+1     :     0.001280
      f-1     :     0.000093
      f+2     :     0.000457
      f-2     :     0.000036
      f+3     :     0.002052
      f-3     :     0.000687
 10 Cls       :     5.767071  s :     5.767071
      pz      :     3.872258  p :    11.460663
      px      :     3.883550
      py      :     3.704855
      dz2     :     0.004933  d :     0.027264
      dxz     :     0.003801
      dyz     :     0.002449
      dx2y2   :     0.013578
      dxy     :     0.002502
      f0      :     0.000060  f :     0.001400
      f+1     :     0.000132
      f-1     :     0.000307
      f+2     :     0.000197
      f-2     :     0.000038
      f+3     :     0.000123
      f-3     :     0.000543
 11 Cls       :     5.791731  s :     5.791731
      pz      :     3.710370  p :    11.491506
      px      :     3.890782
      py      :     3.890354
      dz2     :     0.016097  d :     0.022045
      dxz     :     0.002018
      dyz     :     0.002219
      dx2y2   :     0.000287
      dxy     :     0.001425
      f0      :     0.000726  f :     0.001048
      f+1     :     0.000121
      f-1     :     0.000131
      f+2     :     0.000011
      f-2     :     0.000012
      f+3     :     0.000023
      f-3     :     0.000025


                      *****************************
                      * MAYER POPULATION ANALYSIS *
                      *****************************

  NA   - Mulliken gross atomic population
  ZA   - Total nuclear charge
  QA   - Mulliken gross atomic charge
  VA   - Mayer's total valence
  BVA  - Mayer's bonded valence
  FA   - Mayer's free valence

  ATOM       NA         ZA         QA         VA         BVA        FA
  0 C      6.2529     6.0000    -0.2529     3.8344     3.8344     0.0000
  1 N      7.2998     7.0000    -0.2998     3.3483     3.3483    -0.0000
  2 H      0.8437     1.0000     0.1563     0.9614     0.9614    -0.0000
  3 H      0.8382     1.0000     0.1618     0.9620     0.9620     0.0000
  4 H      0.8434     1.0000     0.1566     0.9610     0.9610     0.0000
  5 H      0.7157     1.0000     0.2843     0.9835     0.9835    -0.0000
  6 H      0.7113     1.0000     0.2887     0.9533     0.9533     0.0000
  7 H      0.7109     1.0000     0.2891     0.9822     0.9822     0.0000
  8 Pb    21.1464    22.0000     0.8536     1.9327     1.9327    -0.0000
  9 Cl    17.4958    17.0000    -0.4958     0.8564     0.8564     0.0000
 10 Cl    17.5687    17.0000    -0.5687     0.7430     0.7430     0.0000
 11 Cl    17.5733    17.0000    -0.5733     0.7420     0.7420     0.0000

  Mayer bond orders larger than 0.1
B(  0-C ,  1-N ) :   0.9068 B(  0-C ,  2-H ) :   0.9701 B(  0-C ,  3-H ) :   0.9690 
B(  0-C ,  4-H ) :   0.9693 B(  1-N ,  5-H ) :   0.8325 B(  1-N ,  6-H ) :   0.8494 
B(  1-N ,  7-H ) :   0.8090 B(  5-H , 11-Cl) :   0.1530 B(  7-H , 10-Cl) :   0.1714 
B(  8-Pb,  9-Cl) :   0.7501 B(  8-Pb, 10-Cl) :   0.5732 B(  8-Pb, 11-Cl) :   0.5988 


-------
TIMINGS
-------

Total SCF time: 0 days 0 hours 4 min 40 sec 

Total time                  ....     280.732 sec
Sum of individual times     ....     248.164 sec  ( 88.4%)

Fock matrix formation       ....     241.734 sec  ( 86.1%)
  Coulomb formation         ....     197.660 sec  ( 81.8% of F)
  Split-RI-J                ....      17.116 sec  (  7.1% of F)
  Chain of spheres X        ....     211.562 sec  ( 87.5% of F)
  XC integration            ....      44.162 sec  ( 18.3% of F)
    Basis function eval.    ....      16.450 sec  ( 37.2% of XC)
    Density eval.           ....      11.233 sec  ( 25.4% of XC)
    XC-Functional eval.     ....       2.978 sec  (  6.7% of XC)
    XC-Potential eval.      ....      12.155 sec  ( 27.5% of XC)
Diagonalization             ....       0.346 sec  (  0.1%)
Density matrix formation    ....       0.039 sec  (  0.0%)
Population analysis         ....       0.075 sec  (  0.0%)
Initial guess               ....       0.145 sec  (  0.1%)
Orbital Transformation      ....       0.000 sec  (  0.0%)
Orbital Orthonormalization  ....       0.140 sec  (  0.0%)
DIIS solution               ....       0.103 sec  (  0.0%)
SOSCF solution              ....       0.151 sec  (  0.1%)
Grid generation             ....       5.570 sec  (  2.0%)

------------------------------------------------------------------------------
                              ORCA MP2 CALCULATION
------------------------------------------------------------------------------


----------------------
RI-MP2 ENERGY+GRADIENT
----------------------
Dimension of the basis                    ...  259
Memory devoted to MP2                     ... 1000 MB   
Data format for buffers                   ... DOUBLE
Compression type for matrix containers    ... UNCOMPRESSED
Overall scaling of the MP2 energy         ...   2.700e-01 Eh
Calculating two index integrals           ... done (    0.020 sec)
Cholesky decomposition of the V-matrix    ... done
Cholesky decomposition of V**-1           ... done (    0.039 sec)

-----------------
RI-TRANSFORMATION (AUX index driven)
-----------------

Dimension of the orbital-basis         ... 259
Dimension of the aux-basis             ... 493
Transformation of internal MOs         ...    0-  45
Transformation of internal/external MOs...    0-  45 to   46- 258
Number Format for Storage              ... Double (8 Byte)
Integral mode                          ... Direct

First Phase: integral generation and transformation of MO indices
  Aux angular momentum 0               ... done (    0.672 sec)
  Aux angular momentum 1               ... done (    0.534 sec)
  Aux angular momentum 2               ... done (    0.637 sec)
  Aux angular momentum 3               ... done (    0.370 sec)
  Aux angular momentum 4               ... done (    0.337 sec)
Closing buffer VIJ ( 0.00 GB; CompressionRatio= 1.95)
Closing buffer VIA ( 0.04 GB; CompressionRatio= 1.00)
  Phase 1 completed in     2.700 sec
Second Phase: sorting and transformation of aux index

IJ-Transformation
Memory available                       ... 990 MB 
Max. # MO pairs treated in a batch     ... 46    
# of internal orbitals                 ... 46
# batches for internal orbitals        ... 1
Closing buffer IJV ( 0.00 GB; CompressionRatio= 1.00)
(ij|v) transformation done in     0.181 sec

IA-Transformation
Memory available                       ... 990 MB 
Max. # MO pairs treated in a batch     ... 46    
# of internal orbitals                 ... 46
# batches for internal orbitals        ... 1
Closing buffer IAV ( 0.04 GB; CompressionRatio= 1.00)
(ia|v) transformation done in     0.687 sec

  Phase 2 completed in     0.906 sec
RI-Integral transformation completed in     3.607 sec
Opening buffers                              ... done

Starting loop over batches of integrals:

Operator 0  - window                       ... (  0- 45)x( 46-258)
Operator 0  - Memory available             ...  1000 MB
Operator 0  - Memory needed per MO         ...   1.6 MB
Operator 0  - Number of orbitals per batch ... 46
Operator 0  - Number of batches            ... 1

OPERATOR  0   PASS   0:  MOs     0 ...   45
  Reading integrals       ... ok
  Internal MO   2
  Internal MO   5
  Internal MO   8
  Internal MO  11
  Internal MO  14
  Internal MO  17
  Internal MO  20
  Internal MO  23
  Internal MO  26
  Internal MO  29
  Internal MO  32
  Internal MO  35
  Internal MO  38
  Internal MO  41
  Internal MO  44
Closing buffer GIPV ( 0.04 GB; CompressionRatio= 1.00)
Time spent in pair loops =    70.739 sec

-----------------------------------------------
 RI-MP2 CORRELATION ENERGY:     -0.577323742 Eh
-----------------------------------------------


---------------------
MP2 DENSITY FORMATION
---------------------

Completing the external part of the density      ... done
Storing the unrelaxed density                    ... done

Calculating the xc-kernel                        ... done
Calculating G(D)                                 ... done
Completing the Lagrangian                        ... done
Solving the Z-vector equations                   ... 

------------------------------------------------------------------------------
                           ORCA CP-SCF CALCULATION
------------------------------------------------------------------------------

Input orbitals are from        ... PbMACl3_mp2_3.orca.gbw
Input Perturbation             ... PbMACl3_mp2_3.orca.pin.tmp
Wavefunction output            ... PbMACl3_mp2_3.orca.pout.tmp
Perturbation mode              ... Real perturbation
Solver                         ... DIIS
   MaxDIIS                     ... 20
   Levelshift                  ...    3.000e-01 Eh
Max. number of iterations      ... 128
Convergence tolerance          ... 1.000e-08
Integral handling              ... Direct
COSX GridX                     ... 1
Number of perturbations        ... 1
Number of operators            ... 1
Orbital ranges used for CP-SCF:
 Operator 0:  Orbitals   0... 45  to  46...258
DFT calculation                         ... on
Exchange functional (SCF)               ... B88
Exchange functional (CP-SCF)            ... B88
   X-Alpha parameter    XAlpha (SCF)    ...  0.666667
   X-Alpha parameter    XAlpha (CP-SCF) ...  0.666667
   Becke's b parameter  XBeta (SCF)     ...  0.004200
   Becke's b parameter  XBeta (CP-SCF)  ...  0.004200
Correlation functional (SCF)            ... LYP
Correlation functional (CP-SCF)         ... LYP
 LDA part of GGA corr.  LDAOpt (SCF)    ... VWN-3
 LDA part of GGA corr.  LDAOpt (CP-SCF) ... VWN-3
Hybrid DFT                              ... on
   Exchange mixing (SCF)                ...  0.530
   Exchange mixing (CP-SCF)             ...  0.530
   GGA exch. scaling(SCF)               ...  0.470
   GGA exch. scaling (CP-SCF)           ...  0.470
   GGA corr. scaling (SCF)              ...  0.730
   GGA corr. scaling (CP-SCF)           ...  0.730
The RIJCOSX approximation is active
Variables per vector in CP-SCF ... 9798
Number of vectors sought       ... 1
Calculating the xc-kernel      ... done

Solving the CP-SCF equations by a DIIS algorithm

-----------------
CP-SCF ITERATIONS
-----------------
  Iteration   0: MaxR=  0.081281681
  Iteration   1: MaxR=  0.035880684
  Iteration   2: MaxR=  0.010828013
  Iteration   3: MaxR=  0.004156491
  Iteration   4: MaxR=  0.001594931
  Iteration   5: MaxR=  0.000538300
  Iteration   6: MaxR=  0.000218112
  Iteration   7: MaxR=  0.000070714
  Iteration   8: MaxR=  0.000029293
  Iteration   9: MaxR=  0.000009228
  Iteration  10: MaxR=  0.000003842
  Iteration  11: MaxR=  0.000001369
  Iteration  12: MaxR=  0.000000564
  Iteration  13: MaxR=  0.000000171
  Iteration  14: MaxR=  0.000000060
  Iteration  15: MaxR=  0.000000021
  Iteration  16: MaxR=  0.000000007
                              *** THE CP-SCF HAS CONVERGED *** 
done
Finalizing the relaxed density                   ... done
Transforming P to the AO basis                   ... done
Storing the relaxed density                      ... done

------------------------------------
ENERGY WEIGHTED DENSITY FINALIZATION
------------------------------------

Gathering the parts of the W-matrix              ... done
Forming the Z-density                            ... done
Transforming Z to the AO basis                   ... done
Calculating G(Z)                                 ... done
Finalizing the W-matrix                          ... done
Transforming W to the AO basis and storing       ... done
Entering the RIJONX and RIJCOSX sections
Starting the three-index derivative integrals:
Operator 0  - Memory available             ...  1000 MB
Operator 0  - Memory needed per MO         ...   1.0 MB
Operator 0  - Number of orbitals per batch ... 46
Operator 0  - Number of batches            ... 1

OPERATOR  0   PASS   0:  MOs     0 ...   45

----------------------------------
MP2 DERIVATIVE INTEGRAL GENERATION
----------------------------------


Input Correlated Electron Density   ... PbMACl3_mp2_3.orca.pmp2re
Input Energy Weighted Density       ... PbMACl3_mp2_3.orca.wmp2.tmp
Input SCF Electron Density          ... PbMACl3_mp2_3.orca.scfp.tmp

One-Electron Terms    ...
  ECP gradient                                           ... One-Electron Terms done

-----------------------------------------------------------
MP2 COSX Grid Generation
-----------------------------------------------------------

General Integration Accuracy     IntAcc      ...  4.340
Radial Grid Type                 RadialGrid  ... Gauss-Chebyshev
Angular Grid (max. acc.)         AngularGrid ... Lebedev-302
Angular grid pruning method      GridPruning ... 3 (G Style)
Weight generation scheme         WeightScheme... Becke
Basis function cutoff            BFCut       ...    1.0000e-11
Integration weight cutoff        WCut        ...    1.0000e-14
Grids for H and He will be reduced by one unit

# of grid points (after initial pruning)     ...  57718 (   0.0 sec)
# of grid points (after weights+screening)   ...  54390 (   0.2 sec)
nearest neighbour list constructed           ...    0.0 sec
Grid point re-assignment to atoms done       ...    0.0 sec
Grid point division into batches done        ...    0.3 sec
Reduced shell lists constructed in    1.5 sec

Total number of grid points                  ...    54390
Total number of batches                      ...      857
Average number of points per batch           ...       63
Average number of grid points per atom       ...     4532
Average number of shells per batch           ...    56.08 (55.52%)
Average number of basis functions per batch  ...   148.72 (57.42%)
Average number of large shells per batch     ...    42.46 (75.72%)
Average number of large basis fcns per batch ...   110.22 (74.11%)
Maximum spatial batch extension              ...  35.78, 33.95, 30.83 au
Average spatial batch extension              ...   3.10,  3.05,  3.06 au

Overlap Fitting                  UseSFitting ... on
Two electron COSX terms .... 
Integration Timings:
Total Time                  =   122.7 sec
Basis fcn evaluation        =     0.6 sec
Density evaluation          =     1.5 sec
Integral evaluation         =   117.3 sec
K(P) evaluation             =     1.2 sec
                          .... COSX two electron terms done
COSX two-electron contribution to the gradient
     0:    -0.018361    -0.022796    -0.022582
     1:     0.051148     0.069820     0.057633
     2:     0.100106    -0.082259     0.107006
     3:    -0.105003     0.098082     0.089507
     4:     0.095434     0.098821    -0.096732
     5:    -0.109063    -0.113550     0.097960
     6:     0.109783    -0.119697    -0.109368
     7:    -0.111143     0.081239    -0.117553
     8:    -0.073738    -0.068434    -0.047267
     9:     0.080423     0.006386    -0.007764
    10:    -0.004045     0.056422    -0.013539
    11:    -0.015591    -0.003982     0.062470
Exchange-correlation gradient    ... done
Dispersion correction            ... 
Entering the calculation of the dispersion correction...

Checking the input atom types...

Done
done

                *********************************************
                * UNRELAXED MP2 DENSITY POPULATION ANALYSIS *
                *********************************************

------------------------------------------------------------------------------
                           ORCA POPULATION ANALYSIS
------------------------------------------------------------------------------
Input electron density              ... PbMACl3_mp2_3.orca.pmp2ur
BaseName (.gbw .S,...)              ... PbMACl3_mp2_3.orca

                    ********************************
                    * MULLIKEN POPULATION ANALYSIS *
                    ********************************

-----------------------
MULLIKEN ATOMIC CHARGES
-----------------------
   0 C :   -0.257454
   1 N :   -0.298771
   2 H :    0.157379
   3 H :    0.162800
   4 H :    0.157650
   5 H :    0.283131
   6 H :    0.288063
   7 H :    0.288063
   8 Pb:    0.839437
   9 Cl:   -0.490314
  10 Cl:   -0.562871
  11 Cl:   -0.567113
Sum of atomic charges:   -0.0000000

--------------------------------
MULLIKEN REDUCED ORBITAL CHARGES
--------------------------------
  0 C s       :     3.272685  s :     3.272685
      pz      :     0.973674  p :     2.900111
      px      :     0.992610
      py      :     0.933827
      dz2     :     0.008758  d :     0.077547
      dxz     :     0.020061
      dyz     :     0.019527
      dx2y2   :     0.009555
      dxy     :     0.019646
      f0      :     0.000501  f :     0.007110
      f+1     :     0.000664
      f-1     :     0.000875
      f+2     :     0.000908
      f-2     :     0.002753
      f+3     :     0.000666
      f-3     :     0.000744
  1 N s       :     3.415183  s :     3.415183
      pz      :     1.278109  p :     3.822364
      px      :     1.277492
      py      :     1.266762
      dz2     :     0.007285  d :     0.058009
      dxz     :     0.014858
      dyz     :     0.013892
      dx2y2   :     0.007786
      dxy     :     0.014189
      f0      :     0.000265  f :     0.003215
      f+1     :     0.000310
      f-1     :     0.000352
      f+2     :     0.000367
      f-2     :     0.001291
      f+3     :     0.000305
      f-3     :     0.000324
  2 H s       :     0.819887  s :     0.819887
      pz      :     0.008662  p :     0.022734
      px      :     0.008062
      py      :     0.006010
  3 H s       :     0.814403  s :     0.814403
      pz      :     0.007284  p :     0.022797
      px      :     0.007707
      py      :     0.007806
  4 H s       :     0.819644  s :     0.819644
      pz      :     0.007080  p :     0.022707
      px      :     0.007703
      py      :     0.007924
  5 H s       :     0.678995  s :     0.678995
      pz      :     0.009547  p :     0.037874
      px      :     0.014016
      py      :     0.014311
  6 H s       :     0.672024  s :     0.672024
      pz      :     0.013973  p :     0.039913
      px      :     0.009949
      py      :     0.015991
  7 H s       :     0.667423  s :     0.667423
      pz      :     0.018789  p :     0.044513
      px      :     0.017653
      py      :     0.008071
  8 Pbs       :     3.865751  s :     3.865751
      pz      :     2.340057  p :     7.093220
      px      :     2.391947
      py      :     2.361216
      dz2     :     2.019415  d :    10.097470
      dxz     :     2.022761
      dyz     :     2.018762
      dx2y2   :     2.018173
      dxy     :     2.018358
      f0      :     0.019217  f :     0.104123
      f+1     :     0.014180
      f-1     :     0.013033
      f+2     :     0.014142
      f-2     :     0.005619
      f+3     :     0.016842
      f-3     :     0.021091
  9 Cls       :     5.940468  s :     5.940468
      pz      :     3.899579  p :    11.477243
      px      :     3.678665
      py      :     3.898999
      dz2     :     0.011979  d :     0.067849
      dxz     :     0.013373
      dyz     :     0.009394
      dx2y2   :     0.019615
      dxy     :     0.013488
      f0      :     0.000564  f :     0.004754
      f+1     :     0.000784
      f-1     :     0.000432
      f+2     :     0.000696
      f-2     :     0.000434
      f+3     :     0.001039
      f-3     :     0.000806
 10 Cls       :     5.950898  s :     5.950898
      pz      :     3.912276  p :    11.553343
      px      :     3.920284
      py      :     3.720783
      dz2     :     0.010452  d :     0.055219
      dxz     :     0.010113
      dyz     :     0.010158
      dx2y2   :     0.014511
      dxy     :     0.009984
      f0      :     0.000436  f :     0.003411
      f+1     :     0.000446
      f-1     :     0.000510
      f+2     :     0.000506
      f-2     :     0.000409
      f+3     :     0.000489
      f-3     :     0.000615
 11 Cls       :     5.953712  s :     5.953712
      pz      :     3.729907  p :    11.557816
      px      :     3.914205
      py      :     3.913703
      dz2     :     0.015777  d :     0.052371
      dxz     :     0.010042
      dyz     :     0.009827
      dx2y2   :     0.008017
      dxy     :     0.008708
      f0      :     0.000694  f :     0.003214
      f+1     :     0.000493
      f-1     :     0.000482
      f+2     :     0.000388
      f-2     :     0.000390
      f+3     :     0.000383
      f-3     :     0.000384


                     *******************************
                     * LOEWDIN POPULATION ANALYSIS *
                     *******************************

----------------------
LOEWDIN ATOMIC CHARGES
----------------------
   0 C :   -0.278497
   1 N :    0.086087
   2 H :    0.124797
   3 H :    0.127382
   4 H :    0.124920
   5 H :    0.178461
   6 H :    0.170236
   7 H :    0.153861
   8 Pb:   -0.102366
   9 Cl:   -0.031417
  10 Cl:   -0.252127
  11 Cl:   -0.301338

-------------------------------
LOEWDIN REDUCED ORBITAL CHARGES
-------------------------------
  0 C s       :     2.853476  s :     2.853476
      pz      :     1.030236  p :     3.075752
      px      :     1.040941
      py      :     1.004576
      dz2     :     0.030442  d :     0.310646
      dxz     :     0.081361
      dyz     :     0.082924
      dx2y2   :     0.033494
      dxy     :     0.082426
      f0      :     0.005496  f :     0.038622
      f+1     :     0.004145
      f-1     :     0.005943
      f+2     :     0.004507
      f-2     :     0.007460
      f+3     :     0.005131
      f-3     :     0.005942
  1 N s       :     3.000248  s :     3.000248
      pz      :     1.247734  p :     3.735210
      px      :     1.245963
      py      :     1.241514
      dz2     :     0.018735  d :     0.167785
      dxz     :     0.043722
      dyz     :     0.042347
      dx2y2   :     0.020449
      dxy     :     0.042532
      f0      :     0.001630  f :     0.010671
      f+1     :     0.001280
      f-1     :     0.001575
      f+2     :     0.001196
      f-2     :     0.001897
      f+3     :     0.001400
      f-3     :     0.001692
  2 H s       :     0.811177  s :     0.811177
      pz      :     0.023582  p :     0.064025
      px      :     0.022208
      py      :     0.018235
  3 H s       :     0.808476  s :     0.808476
      pz      :     0.020021  p :     0.064142
      px      :     0.022984
      py      :     0.021137
  4 H s       :     0.811090  s :     0.811090
      pz      :     0.021304  p :     0.063990
      px      :     0.021266
      py      :     0.021421
  5 H s       :     0.708223  s :     0.708223
      pz      :     0.031948  p :     0.113316
      px      :     0.040380
      py      :     0.040989
  6 H s       :     0.712622  s :     0.712622
      pz      :     0.039573  p :     0.117142
      px      :     0.032561
      py      :     0.045008
  7 H s       :     0.712677  s :     0.712677
      pz      :     0.055080  p :     0.133461
      px      :     0.051915
      py      :     0.026466
  8 Pbs       :     3.674724  s :     3.674724
      pz      :     2.479855  p :     7.606302
      px      :     2.617944
      py      :     2.508504
      dz2     :     2.154305  d :    10.572673
      dxz     :     2.095156
      dyz     :     2.067516
      dx2y2   :     2.171756
      dxy     :     2.083940
      f0      :     0.048528  f :     0.248666
      f+1     :     0.035830
      f-1     :     0.026563
      f+2     :     0.029534
      f-2     :     0.006392
      f+3     :     0.048155
      f-3     :     0.053665
  9 Cls       :     5.649931  s :     5.649931
      pz      :     3.809461  p :    11.274902
      px      :     3.656339
      py      :     3.809103
      dz2     :     0.018627  d :     0.098768
      dxz     :     0.014241
      dyz     :     0.010435
      dx2y2   :     0.039217
      dxy     :     0.016248
      f0      :     0.000652  f :     0.007816
      f+1     :     0.001714
      f-1     :     0.000477
      f+2     :     0.000885
      f-2     :     0.000442
      f+3     :     0.002513
      f-3     :     0.001133
 10 Cls       :     5.762720  s :     5.762720
      pz      :     3.858018  p :    11.418454
      px      :     3.869289
      py      :     3.691147
      dz2     :     0.012828  d :     0.066771
      dxz     :     0.011685
      dyz     :     0.010344
      dx2y2   :     0.021527
      dxy     :     0.010387
      f0      :     0.000449  f :     0.004181
      f+1     :     0.000519
      f-1     :     0.000707
      f+2     :     0.000599
      f-2     :     0.000428
      f+3     :     0.000527
      f-3     :     0.000953
 11 Cls       :     5.787278  s :     5.787278
      pz      :     3.696482  p :    11.449210
      px      :     3.876601
      py      :     3.876127
      dz2     :     0.023999  d :     0.061085
      dxz     :     0.009802
      dyz     :     0.010006
      dx2y2   :     0.008051
      dxy     :     0.009228
      f0      :     0.001140  f :     0.003765
      f+1     :     0.000521
      f-1     :     0.000529
      f+2     :     0.000391
      f-2     :     0.000393
      f+3     :     0.000395
      f-3     :     0.000398


                      *****************************
                      * MAYER POPULATION ANALYSIS *
                      *****************************

  NA   - Mulliken gross atomic population
  ZA   - Total nuclear charge
  QA   - Mulliken gross atomic charge
  VA   - Mayer's total valence
  BVA  - Mayer's bonded valence
  FA   - Mayer's free valence

  ATOM       NA         ZA         QA         VA         BVA        FA
  0 C      6.2575     6.0000    -0.2575     3.8799     3.7655     0.1144
  1 N      7.2988     7.0000    -0.2988     3.4213     3.2789     0.1424
  2 H      0.8426     1.0000     0.1574     0.9641     0.9457     0.0184
  3 H      0.8372     1.0000     0.1628     0.9646     0.9463     0.0183
  4 H      0.8424     1.0000     0.1576     0.9637     0.9453     0.0184
  5 H      0.7169     1.0000     0.2831     0.9862     0.9652     0.0210
  6 H      0.7119     1.0000     0.2881     0.9556     0.9357     0.0198
  7 H      0.7119     1.0000     0.2881     0.9846     0.9643     0.0202
  8 Pb    21.1606    22.0000     0.8394     2.2320     1.8764     0.3556
  9 Cl    17.4903    17.0000    -0.4903     1.0875     0.8316     0.2559
 10 Cl    17.5629    17.0000    -0.5629     0.9807     0.7210     0.2597
 11 Cl    17.5671    17.0000    -0.5671     0.9806     0.7197     0.2609

  Mayer bond orders larger than 0.1
B(  0-C ,  1-N ) :   0.8842 B(  0-C ,  2-H ) :   0.9550 B(  0-C ,  3-H ) :   0.9539 
B(  0-C ,  4-H ) :   0.9542 B(  1-N ,  5-H ) :   0.8174 B(  1-N ,  6-H ) :   0.8340 
B(  1-N ,  7-H ) :   0.7946 B(  5-H , 11-Cl) :   0.1502 B(  7-H , 10-Cl) :   0.1684 
B(  8-Pb,  9-Cl) :   0.7289 B(  8-Pb, 10-Cl) :   0.5564 B(  8-Pb, 11-Cl) :   0.5807 



                *******************************************
                * RELAXED MP2 DENSITY POPULATION ANALYSIS *
                *******************************************

------------------------------------------------------------------------------
                           ORCA POPULATION ANALYSIS
------------------------------------------------------------------------------
Input electron density              ... PbMACl3_mp2_3.orca.pmp2re
BaseName (.gbw .S,...)              ... PbMACl3_mp2_3.orca

                    ********************************
                    * MULLIKEN POPULATION ANALYSIS *
                    ********************************

-----------------------
MULLIKEN ATOMIC CHARGES
-----------------------
   0 C :   -0.275802
   1 N :   -0.294373
   2 H :    0.161437
   3 H :    0.166672
   4 H :    0.161711
   5 H :    0.277360
   6 H :    0.283054
   7 H :    0.281475
   8 Pb:    0.787408
   9 Cl:   -0.467268
  10 Cl:   -0.538956
  11 Cl:   -0.542716
Sum of atomic charges:   -0.0000000

--------------------------------
MULLIKEN REDUCED ORBITAL CHARGES
--------------------------------
  0 C s       :     3.276309  s :     3.276309
      pz      :     0.980052  p :     2.919251
      px      :     0.998771
      py      :     0.940428
      dz2     :     0.008950  d :     0.073291
      dxz     :     0.018493
      dyz     :     0.017999
      dx2y2   :     0.009745
      dxy     :     0.018104
      f0      :     0.000482  f :     0.006950
      f+1     :     0.000655
      f-1     :     0.000862
      f+2     :     0.000900
      f-2     :     0.002672
      f+3     :     0.000651
      f-3     :     0.000728
  1 N s       :     3.415842  s :     3.415842
      pz      :     1.277046  p :     3.818916
      px      :     1.276437
      py      :     1.265433
      dz2     :     0.007439  d :     0.056459
      dxz     :     0.014305
      dyz     :     0.013245
      dx2y2   :     0.007949
      dxy     :     0.013522
      f0      :     0.000261  f :     0.003157
      f+1     :     0.000309
      f-1     :     0.000352
      f+2     :     0.000367
      f-2     :     0.001243
      f+3     :     0.000300
      f-3     :     0.000324
  2 H s       :     0.816198  s :     0.816198
      pz      :     0.008485  p :     0.022366
      px      :     0.007922
      py      :     0.005959
  3 H s       :     0.810907  s :     0.810907
      pz      :     0.007186  p :     0.022421
      px      :     0.007562
      py      :     0.007673
  4 H s       :     0.815951  s :     0.815951
      pz      :     0.006972  p :     0.022338
      px      :     0.007582
      py      :     0.007784
  5 H s       :     0.685187  s :     0.685187
      pz      :     0.009456  p :     0.037453
      px      :     0.013853
      py      :     0.014144
  6 H s       :     0.677446  s :     0.677446
      pz      :     0.013830  p :     0.039500
      px      :     0.009864
      py      :     0.015807
  7 H s       :     0.674466  s :     0.674466
      pz      :     0.018556  p :     0.044059
      px      :     0.017450
      py      :     0.008052
  8 Pbs       :     3.884668  s :     3.884668
      pz      :     2.357721  p :     7.128571
      px      :     2.397161
      py      :     2.373688
      dz2     :     2.017051  d :    10.096671
      dxz     :     2.024024
      dyz     :     2.019871
      dx2y2   :     2.016160
      dxy     :     2.019566
      f0      :     0.018779  f :     0.102681
      f+1     :     0.014026
      f-1     :     0.012866
      f+2     :     0.014072
      f-2     :     0.005608
      f+3     :     0.016581
      f-3     :     0.020749
  9 Cls       :     5.940162  s :     5.940162
      pz      :     3.891684  p :    11.454110
      px      :     3.671934
      py      :     3.890493
      dz2     :     0.011985  d :     0.068230
      dxz     :     0.013512
      dyz     :     0.009499
      dx2y2   :     0.019453
      dxy     :     0.013781
      f0      :     0.000568  f :     0.004766
      f+1     :     0.000780
      f-1     :     0.000434
      f+2     :     0.000703
      f-2     :     0.000436
      f+3     :     0.001032
      f-3     :     0.000813
 10 Cls       :     5.951510  s :     5.951510
      pz      :     3.904877  p :    11.528652
      px      :     3.913659
      py      :     3.710116
      dz2     :     0.010463  d :     0.055363
      dxz     :     0.010235
      dyz     :     0.010196
      dx2y2   :     0.014357
      dxy     :     0.010111
      f0      :     0.000439  f :     0.003431
      f+1     :     0.000450
      f-1     :     0.000511
      f+2     :     0.000512
      f-2     :     0.000411
      f+3     :     0.000494
      f-3     :     0.000615
 11 Cls       :     5.954526  s :     5.954526
      pz      :     3.718783  p :    11.532688
      px      :     3.907410
      py      :     3.906495
      dz2     :     0.015558  d :     0.052275
      dxz     :     0.010044
      dyz     :     0.009900
      dx2y2   :     0.008027
      dxy     :     0.008745
      f0      :     0.000696  f :     0.003228
      f+1     :     0.000497
      f-1     :     0.000487
      f+2     :     0.000388
      f-2     :     0.000391
      f+3     :     0.000384
      f-3     :     0.000386


                     *******************************
                     * LOEWDIN POPULATION ANALYSIS *
                     *******************************

----------------------
LOEWDIN ATOMIC CHARGES
----------------------
   0 C :   -0.287927
   1 N :    0.082106
   2 H :    0.126917
   3 H :    0.129441
   4 H :    0.127053
   5 H :    0.176967
   6 H :    0.168990
   7 H :    0.151982
   8 Pb:   -0.126597
   9 Cl:   -0.022878
  10 Cl:   -0.239219
  11 Cl:   -0.286835

-------------------------------
LOEWDIN REDUCED ORBITAL CHARGES
-------------------------------
  0 C s       :     2.854758  s :     2.854758
      pz      :     1.034569  p :     3.088783
      px      :     1.045215
      py      :     1.008999
      dz2     :     0.030636  d :     0.305999
      dxz     :     0.079773
      dyz     :     0.081197
      dx2y2   :     0.033659
      dxy     :     0.080734
      f0      :     0.005478  f :     0.038387
      f+1     :     0.004123
      f-1     :     0.005924
      f+2     :     0.004473
      f-2     :     0.007360
      f+3     :     0.005099
      f-3     :     0.005930
  1 N s       :     3.002063  s :     3.002063
      pz      :     1.248532  p :     3.737499
      px      :     1.246890
      py      :     1.242077
      dz2     :     0.018990  d :     0.167593
      dxz     :     0.043564
      dyz     :     0.042083
      dx2y2   :     0.020723
      dxy     :     0.042233
      f0      :     0.001645  f :     0.010739
      f+1     :     0.001287
      f-1     :     0.001585
      f+2     :     0.001198
      f-2     :     0.001911
      f+3     :     0.001409
      f-3     :     0.001704
  2 H s       :     0.808957  s :     0.808957
      pz      :     0.023575  p :     0.064126
      px      :     0.022228
      py      :     0.018323
  3 H s       :     0.806342  s :     0.806342
      pz      :     0.020065  p :     0.064217
      px      :     0.022988
      py      :     0.021163
  4 H s       :     0.808867  s :     0.808867
      pz      :     0.021344  p :     0.064080
      px      :     0.021294
      py      :     0.021442
  5 H s       :     0.709783  s :     0.709783
      pz      :     0.031938  p :     0.113250
      px      :     0.040342
      py      :     0.040970
  6 H s       :     0.713999  s :     0.713999
      pz      :     0.039524  p :     0.117011
      px      :     0.032531
      py      :     0.044956
  7 H s       :     0.714711  s :     0.714711
      pz      :     0.054990  p :     0.133306
      px      :     0.051838
      py      :     0.026479
  8 Pbs       :     3.689349  s :     3.689349
      pz      :     2.491959  p :     7.625689
      px      :     2.618290
      py      :     2.515440
      dz2     :     2.150240  d :    10.564955
      dxz     :     2.095276
      dyz     :     2.067880
      dx2y2   :     2.167454
      dxy     :     2.084104
      f0      :     0.047907  f :     0.246605
      f+1     :     0.035718
      f-1     :     0.026275
      f+2     :     0.029291
      f-2     :     0.006370
      f+3     :     0.047969
      f-3     :     0.053075
  9 Cls       :     5.653320  s :     5.653320
      pz      :     3.803940  p :    11.260475
      px      :     3.653379
      py      :     3.803157
      dz2     :     0.019003  d :     0.101076
      dxz     :     0.014605
      dyz     :     0.010549
      dx2y2   :     0.040228
      dxy     :     0.016692
      f0      :     0.000665  f :     0.008007
      f+1     :     0.001759
      f-1     :     0.000480
      f+2     :     0.000907
      f-2     :     0.000445
      f+3     :     0.002591
      f-3     :     0.001159
 10 Cls       :     5.765826  s :     5.765826
      pz      :     3.852687  p :    11.401523
      px      :     3.864495
      py      :     3.684341
      dz2     :     0.012971  d :     0.067624
      dxz     :     0.011834
      dyz     :     0.010473
      dx2y2   :     0.021830
      dxy     :     0.010516
      f0      :     0.000454  f :     0.004246
      f+1     :     0.000523
      f-1     :     0.000720
      f+2     :     0.000609
      f-2     :     0.000430
      f+3     :     0.000532
      f-3     :     0.000978
 11 Cls       :     5.790264  s :     5.790264
      pz      :     3.688758  p :    11.431135
      px      :     3.871637
      py      :     3.870740
      dz2     :     0.024320  d :     0.061621
      dxz     :     0.009850
      dyz     :     0.010104
      dx2y2   :     0.008058
      dxy     :     0.009288
      f0      :     0.001172  f :     0.003815
      f+1     :     0.000528
      f-1     :     0.000535
      f+2     :     0.000391
      f-2     :     0.000393
      f+3     :     0.000397
      f-3     :     0.000399


                      *****************************
                      * MAYER POPULATION ANALYSIS *
                      *****************************

  NA   - Mulliken gross atomic population
  ZA   - Total nuclear charge
  QA   - Mulliken gross atomic charge
  VA   - Mayer's total valence
  BVA  - Mayer's bonded valence
  FA   - Mayer's free valence

  ATOM       NA         ZA         QA         VA         BVA        FA
  0 C      6.2758     6.0000    -0.2758     3.8810     3.7669     0.1141
  1 N      7.2944     7.0000    -0.2944     3.4256     3.2836     0.1421
  2 H      0.8386     1.0000     0.1614     0.9629     0.9446     0.0183
  3 H      0.8333     1.0000     0.1667     0.9634     0.9452     0.0182
  4 H      0.8383     1.0000     0.1617     0.9626     0.9443     0.0183
  5 H      0.7226     1.0000     0.2774     0.9925     0.9716     0.0209
  6 H      0.7169     1.0000     0.2831     0.9612     0.9415     0.0197
  7 H      0.7185     1.0000     0.2815     0.9911     0.9710     0.0201
  8 Pb    21.2126    22.0000     0.7874     2.3095     1.9588     0.3506
  9 Cl    17.4673    17.0000    -0.4673     1.1299     0.8752     0.2547
 10 Cl    17.5390    17.0000    -0.5390     1.0233     0.7649     0.2584
 11 Cl    17.5427    17.0000    -0.5427     1.0234     0.7640     0.2594

  Mayer bond orders larger than 0.1
B(  0-C ,  1-N ) :   0.8918 B(  0-C ,  2-H ) :   0.9522 B(  0-C ,  3-H ) :   0.9512 
B(  0-C ,  4-H ) :   0.9515 B(  1-N ,  5-H ) :   0.8136 B(  1-N ,  6-H ) :   0.8307 
B(  1-N ,  7-H ) :   0.7907 B(  5-H , 11-Cl) :   0.1606 B(  6-H ,  9-Cl) :   0.1028 
B(  7-H , 10-Cl) :   0.1789 B(  8-Pb,  9-Cl) :   0.7563 B(  8-Pb, 10-Cl) :   0.5811 
B(  8-Pb, 11-Cl) :   0.6086 


-------
TIMINGS
-------

Total time                :  709.457 sec
Integral trafo            :    3.623 sec (  0.5%)
I/O of integrals          :    0.473 sec (  0.1%)
K(i,j) Operators          :   10.696 sec (  1.5%)
T(i,j) pair energies      :    2.224 sec (  0.3%)
V-calculation             :    0.020 sec (  0.0%)
V**(-1/2)                 :    0.039 sec (  0.0%)
Gamma(ia|P)               :    9.678 sec (  1.4%)
Gamma-Trafo               :    1.390 sec (  0.2%)
D(virtual)                :    4.192 sec (  0.6%)
D(internal)               :    7.275 sec (  1.0%)
W(virtual)                :    8.294 sec (  1.2%)
W(internal)               :   16.250 sec (  2.3%)
L(virtual)                :    9.320 sec (  1.3%)
L(internal)               :    0.590 sec (  0.1%)
G(D)                      :   18.975 sec (  2.7%)
G(Z)                      :   18.998 sec (  2.7%)
Z-Vector Solution         :  447.770 sec ( 63.1%)
Z-Vector Solution         :  447.770 sec ( 63.1%)
3-Index Derivative 
+ Separable RIJ part      :    6.643 sec (  0.9%)
2-Index Derivative 
+ Separable RIJ part      :    0.046 sec (  0.0%)
Separable Gradient (COSX) :  139.663 sec ( 19.7%)


---------------------------------------
MP2 TOTAL ENERGY:    -1669.611518986 Eh
---------------------------------------

The final MP2 gradient
  0:  -0.00040479   0.00137633  -0.00135465
  1:  -0.00090089   0.00873273  -0.00283121
  2:   0.00254265  -0.00265342   0.00263206
  3:  -0.00272055   0.00283446   0.00268255
  4:   0.00292105   0.00286027  -0.00229593
  5:  -0.00397004  -0.00509094   0.00274876
  6:   0.00554579  -0.00769840  -0.00739263
  7:   0.00043932   0.00171194  -0.00003578
  8:   0.07628292   0.00439546  -0.00559145
  9:  -0.07664794   0.00169729   0.00324114
 10:   0.00458995  -0.00383788   0.00230678
 11:  -0.00773817  -0.00424044   0.00566572

-----------------------------------
NORM OF THE MP2 GRADIENT:  0.110725
-----------------------------------

Entering the calculation of the dispersion correction...

Checking the input atom types...

Done


-------------------------------------------------------------------------------
                          DFT DISPERSION CORRECTION                            
                                                                               
                                DFTD3 V2.1  Rev 6                               
                          USING Becke-Johnson damping                          
-------------------------------------------------------------------------------
The B2PLYP functional is recognized
Active option DFTDOPT                   ...         4   

molecular C6(AA) [au] = 4873.271969 


            DFT-D V3
 parameters
 s6 scaling factor         :     0.6400 
 a1 scaling factor         :     0.3065 
 s8 scaling factor         :     0.9147 
 a2 scaling factor         :     5.0570 
 ad hoc parameters k1-k3   :    16.0000     1.3333    -4.0000 

 Edisp/kcal,au: -8.637804707798  -0.013765216532 
 E6   /kcal   :  -3.955063856 
 E8   /kcal   :  -4.682740852 
 % E8         :  54.212163977 

-------------------------   ----------------
Dispersion correction           -0.013765217
-------------------------   ----------------


-------------------------   --------------------
FINAL SINGLE POINT ENERGY     -1669.625284202892
-------------------------   --------------------


                            ***************************************
                            *     ORCA property calculations      *
                            ***************************************


  WARNING: The energy has been calculated at the MP2 level but the densities
           used in the property calculations are still SCF densities
           MP2 response densities have not been calculated 
           use %mp2 Density relaxed end
           or  %mp2 Density unrelaxed end

                                    ---------------------
                                    Active property flags
                                    ---------------------
   (+) Dipole Moment


------------------------------------------------------------------------------
                       ORCA ELECTRIC PROPERTIES CALCULATION
------------------------------------------------------------------------------

Dipole Moment Calculation                       ... on
Quadrupole Moment Calculation                   ... off
Polarizability Calculation                      ... off
GBWName                                         ... PbMACl3_mp2_3.orca.gbw
Electron density file                           ... PbMACl3_mp2_3.orca.scfp.tmp

-------------
DIPOLE MOMENT
-------------
                                X             Y             Z
Electronic contribution:    -73.41739     -98.85279     -74.91034
Nuclear contribution   :     75.17232      99.85676      75.48845
                        -----------------------------------------
Total Dipole Moment    :      1.75493       1.00397       0.57811
                        -----------------------------------------
Magnitude (a.u.)       :      2.10284
Magnitude (Debye)      :      5.34500


                         *** MP2 UNRELAXED DENSITY ***

------------------------------------------------------------------------------
                       ORCA ELECTRIC PROPERTIES CALCULATION
------------------------------------------------------------------------------

Dipole Moment Calculation                       ... on
Quadrupole Moment Calculation                   ... off
Polarizability Calculation                      ... off
GBWName                                         ... PbMACl3_mp2_3.orca.gbw
Electron density file                           ... PbMACl3_mp2_3.orca.pmp2ur

-------------
DIPOLE MOMENT
-------------
                                X             Y             Z
Electronic contribution:    -73.41856     -98.84397     -74.90123
Nuclear contribution   :     75.17232      99.85676      75.48845
                        -----------------------------------------
Total Dipole Moment    :      1.75375       1.01279       0.58722
                        -----------------------------------------
Magnitude (a.u.)       :      2.10861
Magnitude (Debye)      :      5.35966


                           *** MP2 RELAXED DENSITY ***

------------------------------------------------------------------------------
                       ORCA ELECTRIC PROPERTIES CALCULATION
------------------------------------------------------------------------------

Dipole Moment Calculation                       ... on
Quadrupole Moment Calculation                   ... off
Polarizability Calculation                      ... off
GBWName                                         ... PbMACl3_mp2_3.orca.gbw
Electron density file                           ... PbMACl3_mp2_3.orca.pmp2re

-------------
DIPOLE MOMENT
-------------
                                X             Y             Z
Electronic contribution:    -73.46750     -98.86264     -74.90636
Nuclear contribution   :     75.17232      99.85676      75.48845
                        -----------------------------------------
Total Dipole Moment    :      1.70481       0.99412       0.58209
                        -----------------------------------------
Magnitude (a.u.)       :      2.05755
Magnitude (Debye)      :      5.22987


Timings for individual modules:

Sum of individual times         ...      993.390 sec (=  16.556 min)
GTO integral calculation        ...        0.850 sec (=   0.014 min)   0.1 %
SCF iterations                  ...      280.946 sec (=   4.682 min)  28.3 %
MP2 module                      ...      711.593 sec (=  11.860 min)  71.6 %
                             ****ORCA TERMINATED NORMALLY****
TOTAL RUN TIME: 0 days 0 hours 16 minutes 34 seconds 116 msec
