
                                 *****************
                                 * O   R   C   A *
                                 *****************

           --- An Ab Initio, DFT and Semiempirical electronic structure package ---

                  #######################################################
                  #                        -***-                        #
                  #  Department of molecular theory and spectroscopy    #
                  #              Directorship: Frank Neese              #
                  # Max Planck Institute for Chemical Energy Conversion #
                  #                  D-45470 Muelheim/Ruhr              #
                  #                       Germany                       #
                  #                                                     #
                  #                  All rights reserved                #
                  #                        -***-                        #
                  #######################################################


                         Program Version 3.0.3 - RELEASE   -


 With contributions from (in alphabetic order):
   Ute Becker             : Parallelization
   Dmytro Bykov           : SCF Hessian
   Dmitry Ganyushin       : Spin-Orbit,Spin-Spin,Magnetic field MRCI
   Andreas Hansen         : Spin unrestricted coupled pair/coupled cluster methods
   Dimitrios Liakos       : Extrapolation schemes; parallel MDCI
   Robert Izsak           : Overlap fitted RIJCOSX, COSX-SCS-MP3
   Christian Kollmar      : KDIIS, OOCD, Brueckner-CCSD(T), CCSD density
   Simone Kossmann        : Meta GGA functionals, TD-DFT gradient, OOMP2, MP2 Hessian
   Taras Petrenko         : DFT Hessian,TD-DFT gradient, ASA and ECA modules, normal mode analysis, Resonance Raman, ABS, FL, XAS/XES, NRVS
   Christoph Reimann      : Effective Core Potentials
   Michael Roemelt        : Restricted open shell CIS
   Christoph Riplinger    : Improved optimizer, TS searches, QM/MM, DLPNO-CCSD
   Barbara Sandhoefer     : DKH picture change effects
   Igor Schapiro          : Molecular dynamics
   Kantharuban Sivalingam : CASSCF convergence, NEVPT2
   Boris Wezisla          : Elementary symmetry handling
   Frank Wennmohs         : Technical directorship


 We gratefully acknowledge several colleagues who have allowed us to
 interface, adapt or use parts of their codes:
   Stefan Grimme, W. Hujo, H. Kruse, T. Risthaus : VdW corrections, initial TS optimization,
                                                   DFT functionals, gCP
   Ed Valeev                                     : LibInt (2-el integral package), F12 methods
   Garnet Chan, S. Sharma, R. Olivares           : DMRG
   Ulf Ekstrom                                   : XCFun DFT Library
   Mihaly Kallay                                 : mrcc  (arbitrary order and MRCC methods)
   Andreas Klamt, Michael Diedenhofen            : otool_cosmo (COSMO solvation model)
   Frank Weinhold                                : gennbo (NPA and NBO analysis)
   Christopher J. Cramer and Donald G. Truhlar   : smd solvation model


 Your calculation uses the libint2 library for the computation of 2-el integrals
 For citations please refer to: http://libint.valeyev.net

 This ORCA versions uses:
   CBLAS   interface :  Fast vector & matrix operations
   LAPACKE interface :  Fast linear algebra routines
   SCALAPACK package :  Parallel linear algebra routines


Your calculation utilizes the basis: Ahlrichs-TZV
Cite in your paper:
H - Kr: A. Schaefer, H. Horn and R. Ahlrichs, J. Chem. Phys. 97, 2571 (1992).

The def2-TZV basis will be loaded
Cite in your paper:
 	F. Weigend, R. Ahlrichs, Phys. Chem. Chem. Phys. 2005, 7, 3297.

Your calculation utilizes the geometrical counterpoise correction gCP
Please cite in your paper:
H.Kruse, S. Grimme J.Chem.Phys., 136, (2012), 154101 
   

================================================================================
                                        WARNINGS
                       Please study these warnings very carefully!
================================================================================
Now building the actual basis set
cite the ECPs for Pb [SD(60,MDF)] as follows:
  B. Metz, H. Stoll, M. Dolg, J. Chem. Phys. 113, 2563 (2000).

cite the ECPs for Cs [SD(46,MWB)] as follows:
  T. Leininger, A. Nicklass, W. Kuechle, H. Stoll, M. Dolg and A. Bergner, Chem. Phys. Lett. 255, 274 (1996).

ECP parameters for Pb [SD(60,MDF)], Cs [SD(46,MWB)] have been obtained from:
  pseudopotential library of the Stuttgart/Cologne group
  http://www.theochem.uni-stuttgart.de/pseudopotentials/

cite the ECP basis sets for Pb [DEF2-TZVP], Cs [DEF2-TZVP] as follows:
  F. Weigend, R. Ahlrichs; Phys. Chem. Chem. Phys. 7, 3297(2005).

ECP basis sets for Pb [DEF2-TZVP], Cs [DEF2-TZVP] have been obtained from:
  Turbomole basis set library
  ftp://ftp.chemie.uni-karlsruhe.de/pub/basen/


WARNING: Gradients are needed
  ===> : At least TightSCF should be used for SCF convergence


INFO   : the flag for use of LIBINT has been found!

================================================================================
                                       INPUT FILE
================================================================================
NAME = ts_59_high.orca
|  1> ! PW6B95 def2-TZVP GCP(DFT/TZ) ECP{def2-TZVP} Grid7 MORead
|  2> %pal nprocs 2 end
|  3> %method
|  4>  RunTyp Gradient
|  5>  end
|  6> %maxcore 2000
|  7> %moinp "previous.gbw"
|  8> *xyz 0 1
|  9> Pb 0.357003 0.416912 0.305517 
| 10> Cl 2.735032 1.048787 -0.402965 
| 11> Cl -0.251637 2.920221 1.008967 
| 12> Cl 1.090506 -0.176882 2.859263 
| 13> Cs 4.024499 4.760928 3.478723 
| 14> *
| 15> 
| 16>                          ****END OF INPUT****
================================================================================

                     *******************************
                     * Energy+Gradient Calculation *
                     *******************************

---------------------------------
CARTESIAN COORDINATES (ANGSTROEM)
---------------------------------
  Pb     0.357003    0.416912    0.305517
  Cl     2.735032    1.048787   -0.402965
  Cl    -0.251637    2.920221    1.008967
  Cl     1.090506   -0.176882    2.859263
  Cs     4.024499    4.760928    3.478723

----------------------------
CARTESIAN COORDINATES (A.U.)
----------------------------
  NO LB      ZA    FRAG    MASS        X           Y           Z
   0 Pb   22.0000*   0   207.200  0.674637898988289  0.787849501945377  0.577343459257219
   1 Cl   17.0000    0    35.453          5.168461447510909          1.981920202816868         -0.761493491555577
   2 Cl   17.0000    0    35.453         -0.475525015161542          5.518417940525651          1.906671308164123
   3 Cl   17.0000    0    35.453          2.060757687397929         -0.334258538020259          5.403224014854080
   4 Cs    9.0000*   0   132.905  7.605200936239942  8.996850063317437  6.573833765772938
* core charge reduced due to ECP

--------------------------------
INTERNAL COORDINATES (ANGSTROEM)
--------------------------------
 Pb     0   0   0   0.000000     0.000     0.000
 Cl     1   0   0   2.560515     0.000     0.000
 Cl     1   2   0   2.670551    93.051     0.000
 Cl     1   2   3   2.722542    93.620   268.728
 Cs     3   1   2   5.270032   105.422   318.796

---------------------------
INTERNAL COORDINATES (A.U.)
---------------------------
 Pb     0   0   0   0.000000     0.000     0.000
 Cl     1   0   0   4.838671     0.000     0.000
 Cl     1   2   0   5.046609    93.051     0.000
 Cl     1   2   3   5.144859    93.620   268.728
 Cs     3   1   2   9.958917   105.422   318.796

---------------------
BASIS SET INFORMATION
---------------------
There are 3 groups of distinct atoms

 Group   1 Type Pb  : 10s9p8d2f contracted to 6s5p3d2f pattern {421111/33111/611/11}
 Group   2 Type Cl  : 14s9p3d1f contracted to 5s5p2d1f pattern {73211/51111/21/1}
 Group   3 Type Cs  : 7s6p3d contracted to 5s3p3d pattern {31111/411/111}

Atom   0Pb   basis set group =>   1
Atom   1Cl   basis set group =>   2
Atom   2Cl   basis set group =>   2
Atom   3Cl   basis set group =>   2
Atom   4Cs   basis set group =>   3

-------------------------
ECP PARAMETER INFORMATION
-------------------------

 Group 1, Type Pb ECP SD(60,MDF) (replacing 60 core electrons, lmax=5)
 Group 2, Type Cs ECP SD(46,MWB) (replacing 46 core electrons, lmax=4)

Atom   0Pb   ECP group =>   1
Atom   4Cs   ECP group =>   2




           ************************************************************
           *        Program running with 2 parallel MPI-processes     *
           *              working on a common directory               *
           ************************************************************
------------------------------------------------------------------------------
                           ORCA GTO INTEGRAL CALCULATION
------------------------------------------------------------------------------

                         BASIS SET STATISTICS AND STARTUP INFO

 # of primitive gaussian shells          ...  126
 # of primitive gaussian functions       ...  320
 # of contracted shell                   ...   66
 # of contracted basis functions         ...  190
 Highest angular momentum                ...    3
 Maximum contraction depth               ...    7
 Integral package used                   ... LIBINT
 Integral threshhold            Thresh   ...  1.000e-10
 Primitive cut-off              TCut     ...  1.000e-11


                              INTEGRAL EVALUATION

 One electron integrals    
   ECP integrals                                       ... done
 Pre-screening matrix                    ... done
 Shell pair data                         ... done (   0.001 sec)

           ************************************************************
           *              Shut down parallel processing               *
           ************************************************************


           ************************************************************
           *        Program running with 2 parallel MPI-processes     *
           *              working on a common directory               *
           ************************************************************
-------------------------------------------------------------------------------
                                 ORCA SCF
-------------------------------------------------------------------------------

------------
SCF SETTINGS
------------
Hamiltonian:
 Density Functional     Method          .... DFT(GTOs)
 Exchange Functional    Exchange        .... PW6
 Correlation Functional Correlation     .... B95
 Gradients option       PostSCFGGA      .... off
 Hybrid DFT is turned on
   Fraction HF Exchange ScalHFX         ....  0.280000
   Scaling of DF-GGA-X  ScalDFX         ....  0.720000
   Scaling of DF-GGA-C  ScalDFC         ....  1.000000
   Scaling of DF-LDA-C  ScalLDAC        ....  1.000000
   Perturbative correction              ....  0.000000
   NL short-range parameter             ....  9.000000


General Settings:
 Integral files         IntName         .... ts_59_high.orca
 Hartree-Fock type      HFTyp           .... RHF
 Total Charge           Charge          ....    0
 Multiplicity           Mult            ....    1
 Number of Electrons    NEL             ....   82
 Basis Dimension        Dim             ....  190
 Nuclear Repulsion      ENuc            ....    403.9219081759 Eh

Convergence Acceleration:
 DIIS                   CNVDIIS         .... on
   Start iteration      DIISMaxIt       ....    12
   Startup error        DIISStart       ....  0.200000
   # of expansion vecs  DIISMaxEq       ....     5
   Bias factor          DIISBfac        ....   1.050
   Max. coefficient     DIISMaxC        ....  10.000
 Newton-Raphson         CNVNR           .... off
 SOSCF                  CNVSOSCF        .... on
   Start iteration      SOSCFMaxIt      ....   150
   Startup grad/error   SOSCFStart      ....  0.003300
 Level Shifting         CNVShift        .... on
   Level shift para.    LevelShift      ....    0.2500
   Turn off err/grad.   ShiftErr        ....    0.0010
 Zerner damping         CNVZerner       .... off
 Static damping         CNVDamp         .... on
   Fraction old density DampFac         ....    0.7000
   Max. Damping (<1)    DampMax         ....    0.9800
   Min. Damping (>=0)   DampMin         ....    0.0000
   Turn off err/grad.   DampErr         ....    0.1000
 Fernandez-Rico         CNVRico         .... off

SCF Procedure:
 Maximum # iterations   MaxIter         ....   125
 SCF integral mode      SCFMode         .... Direct
   Integral package                     .... LIBINT
 Reset frequeny         DirectResetFreq ....    20
 Integral Threshold     Thresh          ....  1.000e-10 Eh
 Primitive CutOff       TCut            ....  1.000e-11 Eh

Convergence Tolerance:
 Convergence Check Mode ConvCheckMode   .... Total+1el-Energy
 Energy Change          TolE            ....  1.000e-06 Eh
 1-El. energy change                    ....  1.000e-03 Eh
 Orbital Gradient       TolG            ....  5.000e-05
 Orbital Rotation angle TolX            ....  5.000e-05
 DIIS Error             TolErr          ....  1.000e-06


Diagonalization of the overlap matrix:
Smallest eigenvalue                        ... 7.140e-03
Time for diagonalization                   ...    0.226 sec
Threshold for overlap eigenvalues          ... 1.000e-08
Number of eigenvalues below threshold      ... 0
Time for construction of square roots      ...    0.203 sec
Total time needed                          ...    0.429 sec

---------------------
INITIAL GUESS: MOREAD
---------------------
Guess MOs are being read from file: previous.gbw
Input Geometry matches current geometry (good)
Input basis set matches current basis set (good)
MOs were renormalized
MOs were reorthogonalized (Schmidt)
                      ------------------
                      INITIAL GUESS DONE (   1.4 sec)
                      ------------------
-------------------
DFT GRID GENERATION
-------------------

General Integration Accuracy     IntAcc      ...  5.670
Radial Grid Type                 RadialGrid  ... Gauss-Chebyshev
Angular Grid (max. acc.)         AngularGrid ... Lebedev-770
Angular grid pruning method      GridPruning ... 3 (G Style)
Weight generation scheme         WeightScheme... Becke
Basis function cutoff            BFCut       ...    1.0000e-10
Integration weight cutoff        WCut        ...    1.0000e-14
Grids for H and He will be reduced by one unit

# of grid points (after initial pruning)     ... 162948 (   0.2 sec)
# of grid points (after weights+screening)   ... 161000 (  11.4 sec)
nearest neighbour list constructed           ...    0.0 sec
Grid point re-assignment to atoms done       ...    0.1 sec
Grid point division into batches done        ...   42.4 sec
Reduced shell lists constructed in   48.8 sec

Total number of grid points                  ...   161000
Total number of batches                      ...     2519
Average number of points per batch           ...       63
Average number of grid points per atom       ...    32200
Average number of shells per batch           ...    32.78 (49.66%)
Average number of basis functions per batch  ...   104.48 (54.99%)
Average number of large shells per batch     ...    25.33 (77.29%)
Average number of large basis fcns per batch ...    80.15 (76.72%)
Maximum spatial batch extension              ...  44.07, 43.08, 39.62 au
Average spatial batch extension              ...   1.48,  1.50,  1.51 au

Time for grid setup =   71.186 sec

--------------
SCF ITERATIONS
--------------
ITER       Energy         Delta-E        Max-DP      RMS-DP      [F,P]     Damp
               ***  Starting incremental Fock matrix formation  ***
  0  -1595.0168032121   0.000000000000 0.03706290  0.00038594  0.0447143 0.7000
                      *** Initiating the SOSCF procedure ***
                      *** Re-Reading the Fockian *** 
                      *** Removing any level shift *** 
ITER      Energy       Delta-E        Grad      Rot      Max-DP    RMS-DP
  1  -1595.01826085  -0.0014576361  0.002249  0.002249  0.090339  0.001030
               *** Restarting incremental Fock matrix formation ***
  2  -1595.02156098  -0.0033001338  0.002569  0.004735  0.014160  0.000235
  3  -1595.02166431  -0.0001033305  0.001761  0.002039  0.010909  0.000114
  4  -1595.02171474  -0.0000504310  0.000508  0.000641  0.001347  0.000028
  5  -1595.02171657  -0.0000018278  0.000289  0.000231  0.001103  0.000017
  6  -1595.02171907  -0.0000024957  0.000041  0.000058  0.000177  0.000003
  7  -1595.02171908  -0.0000000155  0.000020  0.000026  0.000044  0.000001
                 **** Energy Check signals convergence ****
              ***Rediagonalizing the Fockian in SOSCF/NRSCF***

               *****************************************************
               *                     SUCCESS                       *
               *           SCF CONVERGED AFTER   8 CYCLES          *
               *****************************************************


----------------
TOTAL SCF ENERGY
----------------

Total Energy       :        -1595.02171910 Eh          -43402.74753 eV

Components:
Nuclear Repulsion  :          403.92190818 Eh           10991.27391 eV
Electronic Energy  :        -1998.94362728 Eh          -54394.02144 eV

One Electron Energy:        -3090.46376532 Eh          -84095.79440 eV
Two Electron Energy:         1091.52013804 Eh           29701.77297 eV

Virial components:
Potential Energy   :        -3042.89575675 Eh          -82801.40308 eV
Kinetic Energy     :         1447.87403765 Eh           39398.65555 eV
Virial Ratio       :            2.10163017


DFT components:
N(Alpha)           :       41.000000596295 electrons
N(Beta)            :       41.000000596295 electrons
N(Total)           :       82.000001192589 electrons
E(X)               :      -73.663282229961 Eh       
E(C)               :       -3.469333443666 Eh       
E(XC)              :      -77.132615673627 Eh       

---------------
SCF CONVERGENCE
---------------

  Last Energy change         ...   -1.9444e-08  Tolerance :   1.0000e-06
  Last MAX-Density change    ...    3.1815e-05  Tolerance :   1.0000e-05
  Last RMS-Density change    ...    4.2483e-07  Tolerance :   1.0000e-06
  Last Orbital Gradient      ...    7.8143e-06  Tolerance :   5.0000e-05
  Last Orbital Rotation      ...    3.4689e-06  Tolerance :   5.0000e-05

             **** THE GBW FILE WAS UPDATED (ts_59_high.orca.gbw) ****
             **** DENSITY FILE WAS UPDATED (ts_59_high.orca.scfp.tmp) ****
             **** ENERGY FILE WAS UPDATED (ts_59_high.orca.en.tmp) ****
----------------
ORBITAL ENERGIES
----------------

  NO   OCC          E(Eh)            E(eV) 
   0   2.0000    -101.818076     -2770.6107 
   1   2.0000    -101.808723     -2770.3562 
   2   2.0000    -101.798841     -2770.0873 
   3   2.0000      -9.458540      -257.3799 
   4   2.0000      -9.448621      -257.1101 
   5   2.0000      -9.438455      -256.8334 
   6   2.0000      -7.188301      -195.6036 
   7   2.0000      -7.185470      -195.5266 
   8   2.0000      -7.185355      -195.5235 
   9   2.0000      -7.178377      -195.3336 
  10   2.0000      -7.175685      -195.2603 
  11   2.0000      -7.175476      -195.2546 
  12   2.0000      -7.168283      -195.0589 
  13   2.0000      -7.165483      -194.9827 
  14   2.0000      -7.165329      -194.9785 
  15   2.0000      -5.518461      -150.1650 
  16   2.0000      -3.342388       -90.9510 
  17   2.0000      -3.341935       -90.9387 
  18   2.0000      -3.340779       -90.9072 
  19   2.0000      -1.166464       -31.7411 
  20   2.0000      -0.838104       -22.8060 
  21   2.0000      -0.835476       -22.7345 
  22   2.0000      -0.831803       -22.6345 
  23   2.0000      -0.831622       -22.6296 
  24   2.0000      -0.830644       -22.6030 
  25   2.0000      -0.729604       -19.8535 
  26   2.0000      -0.711590       -19.3633 
  27   2.0000      -0.700494       -19.0614 
  28   2.0000      -0.635195       -17.2845 
  29   2.0000      -0.635116       -17.2824 
  30   2.0000      -0.632864       -17.2211 
  31   2.0000      -0.455245       -12.3878 
  32   2.0000      -0.280473        -7.6321 
  33   2.0000      -0.271690        -7.3930 
  34   2.0000      -0.264050        -7.1852 
  35   2.0000      -0.247506        -6.7350 
  36   2.0000      -0.244082        -6.6418 
  37   2.0000      -0.234585        -6.3834 
  38   2.0000      -0.226698        -6.1688 
  39   2.0000      -0.223863        -6.0916 
  40   2.0000      -0.220832        -6.0091 
  41   0.0000      -0.092256        -2.5104 
  42   0.0000      -0.036055        -0.9811 
  43   0.0000      -0.035255        -0.9593 
  44   0.0000      -0.035232        -0.9587 
  45   0.0000      -0.030621        -0.8332 
  46   0.0000      -0.030591        -0.8324 
  47   0.0000      -0.015256        -0.4151 
  48   0.0000      -0.014965        -0.4072 
  49   0.0000      -0.002595        -0.0706 
  50   0.0000       0.014495         0.3944 
  51   0.0000       0.014848         0.4040 
  52   0.0000       0.018829         0.5124 
  53   0.0000       0.025608         0.6968 
  54   0.0000       0.033448         0.9102 
  55   0.0000       0.033864         0.9215 
  56   0.0000       0.039144         1.0652 
  57   0.0000       0.039880         1.0852 
  58   0.0000       0.044345         1.2067 
  59   0.0000       0.144158         3.9227 
  60   0.0000       0.155337         4.2269 
  61   0.0000       0.158534         4.3139 
  62   0.0000       0.214314         5.8318 
  63   0.0000       0.214705         5.8424 
  64   0.0000       0.228450         6.2164 
  65   0.0000       0.258751         7.0410 
  66   0.0000       0.263109         7.1596 
  67   0.0000       0.264228         7.1900 
  68   0.0000       0.283458         7.7133 
  69   0.0000       0.283602         7.7172 
  70   0.0000       0.285436         7.7671 
  71   0.0000       0.286267         7.7897 
  72   0.0000       0.296805         8.0765 
  73   0.0000       0.306795         8.3483 
  74   0.0000       0.309348         8.4178 
  75   0.0000       0.357876         9.7383 
  76   0.0000       0.403303        10.9744 
  77   0.0000       0.418000        11.3744 
  78   0.0000       0.423105        11.5133 
  79   0.0000       0.426273        11.5995 
  80   0.0000       0.448739        12.2108 
  81   0.0000       0.454752        12.3744 
  82   0.0000       0.472704        12.8629 
  83   0.0000       0.476361        12.9624 
  84   0.0000       0.487252        13.2588 
  85   0.0000       0.494646        13.4600 
  86   0.0000       0.501185        13.6379 
  87   0.0000       0.512820        13.9545 
  88   0.0000       0.514801        14.0084 
  89   0.0000       0.523885        14.2556 
  90   0.0000       0.544739        14.8231 
  91   0.0000       0.551096        14.9961 
  92   0.0000       0.569590        15.4993 
  93   0.0000       0.574960        15.6455 
  94   0.0000       0.580363        15.7925 
  95   0.0000       0.591118        16.0851 
  96   0.0000       0.592211        16.1149 
  97   0.0000       0.618680        16.8351 
  98   0.0000       0.630074        17.1452 
  99   0.0000       0.634123        17.2554 
 100   0.0000       0.651221        17.7206 
 101   0.0000       0.738189        20.0871 
 102   0.0000       0.814215        22.1559 
 103   0.0000       0.816733        22.2244 
 104   0.0000       0.824196        22.4275 
 105   0.0000       0.832523        22.6541 
 106   0.0000       0.834660        22.7123 
 107   0.0000       0.856739        23.3131 
 108   0.0000       0.860392        23.4124 
 109   0.0000       0.870504        23.6876 
 110   0.0000       0.884027        24.0556 
 111   0.0000       1.039468        28.2854 
 112   0.0000       1.043151        28.3856 
 113   0.0000       1.059658        28.8347 
 114   0.0000       1.082093        29.4452 
 115   0.0000       1.086147        29.5556 
 116   0.0000       1.215550        33.0768 
 117   0.0000       1.231061        33.4989 
 118   0.0000       1.263667        34.3861 
 119   0.0000       1.836236        49.9665 
 120   0.0000       1.840446        50.0811 
 121   0.0000       1.846346        50.2416 
 122   0.0000       1.846908        50.2569 
 123   0.0000       1.854634        50.4672 
 124   0.0000       1.855667        50.4953 
 125   0.0000       1.878195        51.1083 
 126   0.0000       1.891979        51.4834 
 127   0.0000       1.895121        51.5689 
 128   0.0000       1.937786        52.7298 
 129   0.0000       1.943680        52.8902 
 130   0.0000       1.961658        53.3794 
 131   0.0000       2.011047        54.7234 
 132   0.0000       2.027016        55.1579 
 133   0.0000       2.043014        55.5932 
 134   0.0000       2.065347        56.2010 
 135   0.0000       2.073580        56.4250 
 136   0.0000       2.075001        56.4636 
 137   0.0000       2.078593        56.5614 
 138   0.0000       2.102098        57.2010 
 139   0.0000       2.116838        57.6021 
 140   0.0000       2.133641        58.0593 
 141   0.0000       2.171836        59.0987 
 142   0.0000       2.177338        59.2484 
 143   0.0000       2.179286        59.3014 
 144   0.0000       2.179618        59.3104 
 145   0.0000       2.182747        59.3956 
 146   0.0000       2.189510        59.5796 
 147   0.0000       2.189617        59.5825 
 148   0.0000       2.190218        59.5989 
 149   0.0000       2.191958        59.6462 
 150   0.0000       2.200125        59.8685 
 151   0.0000       2.200556        59.8802 
 152   0.0000       2.210151        60.1413 
 153   0.0000       2.262542        61.5669 
 154   0.0000       2.282722        62.1160 
 155   0.0000       2.307930        62.8020 
 156   0.0000       2.311011        62.8858 
 157   0.0000       2.318285        63.0837 
 158   0.0000       2.326480        63.3067 
 159   0.0000       2.335130        63.5421 
 160   0.0000       2.338748        63.6406 
 161   0.0000       2.360891        64.2431 
 162   0.0000       2.367554        64.4244 
 163   0.0000       2.381958        64.8164 
 164   0.0000       2.396082        65.2007 
 165   0.0000       2.399647        65.2977 
 166   0.0000       2.460369        66.9501 
 167   0.0000       2.465280        67.0837 
 168   0.0000       2.519915        68.5704 
 169   0.0000       2.735793        74.4447 
 170   0.0000       2.755469        74.9801 
 171   0.0000       3.073233        83.6269 
 172   0.0000      10.805099       294.0217 
 173   0.0000      10.807757       294.0940 
 174   0.0000      10.817185       294.3506 
 175   0.0000      10.834230       294.8144 
 176   0.0000      10.846991       295.1616 
 177   0.0000      10.850767       295.2644 
 178   0.0000      10.885953       296.2219 
 179   0.0000      10.925324       297.2932 
 180   0.0000      10.941753       297.7402 
 181   0.0000      19.737816       537.0933 
 182   0.0000      24.764133       673.8663 
 183   0.0000      24.825543       675.5374 
 184   0.0000      24.972835       679.5454 
 185   0.0000      35.349071       961.8971 
 186   0.0000      35.707196       971.6422 
 187   0.0000      35.710326       971.7274 
 188   0.0000      35.728396       972.2191 
 189   0.0000     124.782587      3395.5068 

                    ********************************
                    * MULLIKEN POPULATION ANALYSIS *
                    ********************************

-----------------------
MULLIKEN ATOMIC CHARGES
-----------------------
   0 Pb:    0.782808
   1 Cl:   -0.544992
   2 Cl:   -0.577159
   3 Cl:   -0.580071
   4 Cs:    0.919414
Sum of atomic charges:   -0.0000000

--------------------------------
MULLIKEN REDUCED ORBITAL CHARGES
--------------------------------
  0 Pbs       :     3.915982  s :     3.915982
      pz      :     2.366800  p :     7.119056
      px      :     2.382534
      py      :     2.369723
      dz2     :     2.024792  d :    10.131700
      dxz     :     2.028655
      dyz     :     2.027707
      dx2y2   :     2.022866
      dxy     :     2.027680
      f0      :     0.008497  f :     0.050454
      f+1     :     0.008003
      f-1     :     0.006131
      f+2     :     0.006874
      f-2     :     0.004018
      f+3     :     0.008061
      f-3     :     0.008869
  1 Cls       :     5.953068  s :     5.953068
      pz      :     3.919393  p :    11.577261
      px      :     3.736776
      py      :     3.921092
      dz2     :     0.002087  d :     0.013875
      dxz     :     0.003149
      dyz     :     0.000474
      dx2y2   :     0.004916
      dxy     :     0.003249
      f0      :     0.000082  f :     0.000788
      f+1     :     0.000127
      f-1     :     0.000016
      f+2     :     0.000126
      f-2     :     0.000065
      f+3     :     0.000186
      f-3     :     0.000187
  2 Cls       :     5.957382  s :     5.957382
      pz      :     3.927648  p :    11.608818
      px      :     3.933666
      py      :     3.747504
      dz2     :     0.001382  d :     0.010395
      dxz     :     0.000362
      dyz     :     0.002549
      dx2y2   :     0.004146
      dxy     :     0.001956
      f0      :     0.000062  f :     0.000564
      f+1     :     0.000008
      f-1     :     0.000098
      f+2     :     0.000103
      f-2     :     0.000041
      f+3     :     0.000117
      f-3     :     0.000135
  3 Cls       :     5.959547  s :     5.959547
      pz      :     3.742960  p :    11.610613
      px      :     3.930168
      py      :     3.937485
      dz2     :     0.004809  d :     0.009419
      dxz     :     0.002348
      dyz     :     0.001728
      dx2y2   :     0.000266
      dxy     :     0.000268
      f0      :     0.000177  f :     0.000491
      f+1     :     0.000143
      f-1     :     0.000105
      f+2     :     0.000028
      f-2     :     0.000033
      f+3     :     0.000002
      f-3     :     0.000002
  4 Css       :     2.019563  s :     2.019563
      pz      :     2.007615  p :     6.027651
      px      :     2.009480
      py      :     2.010556
      dz2     :     0.006033  d :     0.033373
      dxz     :     0.006342
      dyz     :     0.006107
      dx2y2   :     0.008651
      dxy     :     0.006239


                     *******************************
                     * LOEWDIN POPULATION ANALYSIS *
                     *******************************

----------------------
LOEWDIN ATOMIC CHARGES
----------------------
   0 Pb:    0.052773
   1 Cl:   -0.231479
   2 Cl:   -0.299640
   3 Cl:   -0.332544
   4 Cs:    0.810890

-------------------------------
LOEWDIN REDUCED ORBITAL CHARGES
-------------------------------
  0 Pbs       :     3.757317  s :     3.757317
      pz      :     2.491825  p :     7.527162
      px      :     2.531730
      py      :     2.503606
      dz2     :     2.119967  d :    10.521513
      dxz     :     2.097096
      dyz     :     2.087507
      dx2y2   :     2.124015
      dxy     :     2.092927
      f0      :     0.024665  f :     0.141236
      f+1     :     0.021574
      f-1     :     0.016292
      f+2     :     0.019407
      f-2     :     0.010344
      f+3     :     0.023513
      f-3     :     0.025441
  1 Cls       :     5.755783  s :     5.755783
      pz      :     3.872682  p :    11.448485
      px      :     3.700758
      py      :     3.875045
      dz2     :     0.004302  d :     0.025691
      dxz     :     0.004601
      dyz     :     0.000591
      dx2y2   :     0.010477
      dxy     :     0.005720
      f0      :     0.000157  f :     0.001520
      f+1     :     0.000255
      f-1     :     0.000028
      f+2     :     0.000221
      f-2     :     0.000102
      f+3     :     0.000348
      f-3     :     0.000409
  2 Cls       :     5.785312  s :     5.785312
      pz      :     3.890576  p :    11.495127
      px      :     3.895295
      py      :     3.709256
      dz2     :     0.002448  d :     0.018225
      dxz     :     0.000378
      dyz     :     0.004304
      dx2y2   :     0.008604
      dxy     :     0.002491
      f0      :     0.000117  f :     0.000976
      f+1     :     0.000009
      f-1     :     0.000139
      f+2     :     0.000199
      f-2     :     0.000052
      f+3     :     0.000171
      f-3     :     0.000289
  3 Cls       :     5.805316  s :     5.805316
      pz      :     3.709232  p :    11.510881
      px      :     3.897922
      py      :     3.903727
      dz2     :     0.009025  d :     0.015551
      dxz     :     0.003903
      dyz     :     0.002034
      dx2y2   :     0.000300
      dxy     :     0.000290
      f0      :     0.000310  f :     0.000796
      f+1     :     0.000271
      f-1     :     0.000138
      f+2     :     0.000031
      f-2     :     0.000041
      f+3     :     0.000003
      f-3     :     0.000002
  4 Css       :     2.027741  s :     2.027741
      pz      :     2.015457  p :     6.057861
      px      :     2.020074
      py      :     2.022330
      dz2     :     0.013124  d :     0.103507
      dxz     :     0.020132
      dyz     :     0.024224
      dx2y2   :     0.019416
      dxy     :     0.026612


                      *****************************
                      * MAYER POPULATION ANALYSIS *
                      *****************************

  NA   - Mulliken gross atomic population
  ZA   - Total nuclear charge
  QA   - Mulliken gross atomic charge
  VA   - Mayer's total valence
  BVA  - Mayer's bonded valence
  FA   - Mayer's free valence

  ATOM       NA         ZA         QA         VA         BVA        FA
  0 Pb    21.2172    22.0000     0.7828     2.0603     2.0603     0.0000
  1 Cl    17.5450    17.0000    -0.5450     0.7908     0.7908    -0.0000
  2 Cl    17.5772    17.0000    -0.5772     0.7402     0.7402    -0.0000
  3 Cl    17.5801    17.0000    -0.5801     0.7332     0.7332     0.0000
  4 Cs     8.0806     9.0000     0.9194     0.1590     0.1590    -0.0000

  Mayer bond orders larger than 0.1
B(  0-Pb,  1-Cl) :   0.7248 B(  0-Pb,  2-Cl) :   0.6577 B(  0-Pb,  3-Cl) :   0.6686 


-------
TIMINGS
-------

Total SCF time: 0 days 0 hours 8 min 5 sec 

Total time                  ....     485.548 sec
Sum of individual times     ....     484.615 sec  ( 99.8%)

Fock matrix formation       ....     409.328 sec  ( 84.3%)
  Coulomb formation         ....     287.169 sec  ( 70.2% of F)
  XC integration            ....     120.574 sec  ( 29.5% of F)
    Basis function eval.    ....      22.066 sec  ( 18.3% of XC)
    Density eval.           ....      39.559 sec  ( 32.8% of XC)
    XC-Functional eval.     ....      11.428 sec  (  9.5% of XC)
    XC-Potential eval.      ....      38.904 sec  ( 32.3% of XC)
Diagonalization             ....       0.600 sec  (  0.1%)
Density matrix formation    ....       1.288 sec  (  0.3%)
Population analysis         ....       0.173 sec  (  0.0%)
Initial guess               ....       1.436 sec  (  0.3%)
Orbital Transformation      ....       0.000 sec  (  0.0%)
Orbital Orthonormalization  ....       0.542 sec  (  0.1%)
DIIS solution               ....       0.005 sec  (  0.0%)
SOSCF solution              ....       0.599 sec  (  0.1%)
Grid generation             ....      71.186 sec  ( 14.7%)
           ************************************************************
           *              Shut down parallel processing               *
           ************************************************************
 ** NOTE ** -> element pb will be treated as ge
 ** NOTE ** -> element cs will be treated as k 
Egcp:       0.0016041964 a.u.
NOTIFICATION: Different basis set in ORCA and otool_gcp:
ORCA: 190  gCP: 192 
If you are NOT using ECPs, check your basis set inputs!
------------------   -----------------
gCP correction             0.001604196
------------------   -----------------

-------------------------   --------------------
FINAL SINGLE POINT ENERGY     -1595.020114905634
-------------------------   --------------------



           ************************************************************
           *        Program running with 2 parallel MPI-processes     *
           *              working on a common directory               *
           ************************************************************
------------------------------------------------------------------------------
                         ORCA SCF GRADIENT CALCULATION
------------------------------------------------------------------------------

Gradient of the Kohn-Sham DFT energy:
Kohn-Sham wavefunction type      ... RKS
Hartree-Fock exchange scaling    ...    0.280
Number of operators              ...    1
Number of atoms                  ...    5
Basis set dimensions             ...  190
Integral neglect threshold       ... 1.0e-10
Integral primitive cutoff        ... 1.0e-11

Nuclear repulsion gradient       ... done
One Electron Gradient            
  ECP gradient                   ... done
Pre-screening matrix             ... done
Starting the two electron gradient:
Two electron gradient done
Exchange-correlation gradient    ... done
gCP correction                   ... done

------------------
CARTESIAN GRADIENT
------------------

   1   Pb  :   -0.005899590   -0.010262337   -0.022073808
   2   Cl  :   -0.001052516   -0.000528020    0.000740301
   3   Cl  :   -0.002868334    0.006785565    0.002670012
   4   Cl  :    0.003539232   -0.002839643    0.013954340
   5   Cs  :    0.006266506    0.007025625    0.004974195

Norm of the cartesian gradient     ...    0.031927935
RMS gradient                       ...    0.008243757
MAX gradient                       ...    0.022073808

-------
TIMINGS
-------

Total SCF gradient time            ...      201.753 sec

One electron gradient       ....      10.772 sec  (  5.3%)
Prescreening matrices       ....       2.741 sec  (  1.4%)
Two electron gradient       ....     141.284 sec  ( 70.0%)
XC gradient                 ....      36.227 sec  ( 18.0%)
           ************************************************************
           *              Shut down parallel processing               *
           ************************************************************

                            ***************************************
                            *     ORCA property calculations      *
                            ***************************************

                                    ---------------------
                                    Active property flags
                                    ---------------------
   (+) Dipole Moment


------------------------------------------------------------------------------
                       ORCA ELECTRIC PROPERTIES CALCULATION
------------------------------------------------------------------------------

Dipole Moment Calculation                       ... on
Quadrupole Moment Calculation                   ... off
Polarizability Calculation                      ... off
GBWName                                         ... ts_59_high.orca.gbw
Electron density file                           ... ts_59_high.orca.scfp.tmp

-------------
DIPOLE MOMENT
-------------
                                X             Y             Z
Electronic contribution:     61.57196      81.52604      45.03575
Nuclear contribution   :    -57.19233     -76.13014     -41.88996
                        -----------------------------------------
Total Dipole Moment    :      4.37963       5.39591       3.14580
                        -----------------------------------------
Magnitude (a.u.)       :      7.62844
Magnitude (Debye)      :     19.38994


Timings for individual modules:

Sum of individual times         ...      714.563 sec (=  11.909 min)
GTO integral calculation        ...       13.787 sec (=   0.230 min)   1.9 %
SCF iterations                  ...      495.730 sec (=   8.262 min)  69.4 %
SCF Gradient evaluation         ...      205.045 sec (=   3.417 min)  28.7 %
                             ****ORCA TERMINATED NORMALLY****
TOTAL RUN TIME: 0 days 0 hours 11 minutes 59 seconds 152 msec
