
                                 *****************
                                 * O   R   C   A *
                                 *****************

           --- An Ab Initio, DFT and Semiempirical electronic structure package ---

                  #######################################################
                  #                        -***-                        #
                  #  Department of molecular theory and spectroscopy    #
                  #              Directorship: Frank Neese              #
                  # Max Planck Institute for Chemical Energy Conversion #
                  #                  D-45470 Muelheim/Ruhr              #
                  #                       Germany                       #
                  #                                                     #
                  #                  All rights reserved                #
                  #                        -***-                        #
                  #######################################################


                         Program Version 3.0.3 - RELEASE   -


 With contributions from (in alphabetic order):
   Ute Becker             : Parallelization
   Dmytro Bykov           : SCF Hessian
   Dmitry Ganyushin       : Spin-Orbit,Spin-Spin,Magnetic field MRCI
   Andreas Hansen         : Spin unrestricted coupled pair/coupled cluster methods
   Dimitrios Liakos       : Extrapolation schemes; parallel MDCI
   Robert Izsak           : Overlap fitted RIJCOSX, COSX-SCS-MP3
   Christian Kollmar      : KDIIS, OOCD, Brueckner-CCSD(T), CCSD density
   Simone Kossmann        : Meta GGA functionals, TD-DFT gradient, OOMP2, MP2 Hessian
   Taras Petrenko         : DFT Hessian,TD-DFT gradient, ASA and ECA modules, normal mode analysis, Resonance Raman, ABS, FL, XAS/XES, NRVS
   Christoph Reimann      : Effective Core Potentials
   Michael Roemelt        : Restricted open shell CIS
   Christoph Riplinger    : Improved optimizer, TS searches, QM/MM, DLPNO-CCSD
   Barbara Sandhoefer     : DKH picture change effects
   Igor Schapiro          : Molecular dynamics
   Kantharuban Sivalingam : CASSCF convergence, NEVPT2
   Boris Wezisla          : Elementary symmetry handling
   Frank Wennmohs         : Technical directorship


 We gratefully acknowledge several colleagues who have allowed us to
 interface, adapt or use parts of their codes:
   Stefan Grimme, W. Hujo, H. Kruse, T. Risthaus : VdW corrections, initial TS optimization,
                                                   DFT functionals, gCP
   Ed Valeev                                     : LibInt (2-el integral package), F12 methods
   Garnet Chan, S. Sharma, R. Olivares           : DMRG
   Ulf Ekstrom                                   : XCFun DFT Library
   Mihaly Kallay                                 : mrcc  (arbitrary order and MRCC methods)
   Andreas Klamt, Michael Diedenhofen            : otool_cosmo (COSMO solvation model)
   Frank Weinhold                                : gennbo (NPA and NBO analysis)
   Christopher J. Cramer and Donald G. Truhlar   : smd solvation model


 Your calculation uses the libint2 library for the computation of 2-el integrals
 For citations please refer to: http://libint.valeyev.net

 This ORCA versions uses:
   CBLAS   interface :  Fast vector & matrix operations
   LAPACKE interface :  Fast linear algebra routines
   SCALAPACK package :  Parallel linear algebra routines


Your calculation utilizes the basis: Ahlrichs-TZV
Cite in your paper:
H - Kr: A. Schaefer, H. Horn and R. Ahlrichs, J. Chem. Phys. 97, 2571 (1992).

The def2-TZV basis will be loaded
Cite in your paper:
 	F. Weigend, R. Ahlrichs, Phys. Chem. Chem. Phys. 2005, 7, 3297.

Your calculation utilizes the atom-pairwise dispersion correction
with the Becke-Johnson damping scheme (D3BJ)
Cite in your paper:
S.Grimme, S.Ehrlich, L.Goerigk, J Comput Chem, (2011), 32, 1456–1465 
S.Grimme, J.Antony, S.Ehrlich and H.Krieg, J.Chem.Phys., 132, (2010), 154104 
   

================================================================================
                                        WARNINGS
                       Please study these warnings very carefully!
================================================================================

WARNING: The RI method has been chosen with no auxiliary basis (AUX or GTOAUX in BASIS block)
        Standard TZV/J expansion basis used (GTOAUX=TZV_J)

Now building the actual basis set
cite the ECPs for Pb [SD(60,MDF)] as follows:
  B. Metz, H. Stoll, M. Dolg, J. Chem. Phys. 113, 2563 (2000).

ECP parameters for Pb [SD(60,MDF)] have been obtained from:
  pseudopotential library of the Stuttgart/Cologne group
  http://www.theochem.uni-stuttgart.de/pseudopotentials/

cite the ECP basis sets for Pb [DEF2-TZVP] as follows:
  F. Weigend, R. Ahlrichs; Phys. Chem. Chem. Phys. 7, 3297(2005).

ECP basis sets for Pb [DEF2-TZVP] have been obtained from:
  Turbomole basis set library
  ftp://ftp.chemie.uni-karlsruhe.de/pub/basen/



INFO   : the flag for use of LIBINT has been found!

================================================================================
                                       INPUT FILE
================================================================================
NAME = PbMACl3_mp2_md2_2.orca
|  1> ! RIJCOSX RI-B2PLYP D3BJ def2-TZVP ECP{def2-TZVP} TIGHTSCF Grid5 FinalGrid6 SlowConv MORead
|  2> %method
|  3>  RunTyp Gradient
|  4>  end
|  5> %maxcore 1000
|  6> %moinp "previous.gbw"
|  7> *xyz 0 1
|  8> C -0.394281 0.276013 -0.426662 
|  9> N -1.165380 -0.685592 -1.253010 
| 10> H 0.248796 -0.278576 0.260517 
| 11> H -1.090820 0.897444 0.140826 
| 12> H 0.215705 0.904875 -1.079130 
| 13> H -1.783150 -1.324970 -0.698370 
| 14> H -0.582260 -1.326300 -1.835140 
| 15> H -1.813140 -0.240924 -1.938260 
| 16> Pb -2.756200 -3.818700 -2.717490 
| 17> Cl -1.221100 -3.252780 -4.704020 
| 18> Cl -2.590660 1.367590 -2.748500 
| 19> Cl -4.690390 -3.454960 -1.059510 
| 20> *
| 21> 
| 22>                          ****END OF INPUT****
================================================================================

                     *******************************
                     * Energy+Gradient Calculation *
                     *******************************

---------------------------------
CARTESIAN COORDINATES (ANGSTROEM)
---------------------------------
  C     -0.394281    0.276013   -0.426662
  N     -1.165380   -0.685592   -1.253010
  H      0.248796   -0.278576    0.260517
  H     -1.090820    0.897444    0.140826
  H      0.215705    0.904875   -1.079130
  H     -1.783150   -1.324970   -0.698370
  H     -0.582260   -1.326300   -1.835140
  H     -1.813140   -0.240924   -1.938260
  Pb    -2.756200   -3.818700   -2.717490
  Cl    -1.221100   -3.252780   -4.704020
  Cl    -2.590660    1.367590   -2.748500
  Cl    -4.690390   -3.454960   -1.059510

----------------------------
CARTESIAN COORDINATES (A.U.)
----------------------------
  NO LB      ZA    FRAG    MASS        X           Y           Z
   0 C     6.0000    0    12.011         -0.745083109808605          0.521588979402006         -0.806274331751109
   1 N     7.0000    0    14.007         -2.202249041949148         -1.295581119607339         -2.367845743064668
   2 H     1.0000    0     1.008          0.470156303215072         -0.526432347483247          0.492305783230763
   3 H     1.0000    0     1.008         -2.061351061403979          1.695923380530824          0.266122572535594
   4 H     1.0000    0     1.008          0.407623375717484          1.709965935431992         -2.039260162898440
   5 H     1.0000    0     1.008         -3.369665155701680         -2.503830435661641         -1.319728040146585
   6 H     1.0000    0     1.008         -1.100311938736988         -2.506343771419756         -3.467912017404246
   7 H     1.0000    0     1.008         -3.426338042457978         -0.455280379088844         -3.662780576334205
   8 Pb   22.0000*   0   207.200  -5.208463170313754  -7.216297187605084  -5.135311871669662
   9 Cl   17.0000    0    35.453         -2.307544582131241         -6.146863373896369         -8.889309528488246
  10 Cl   17.0000    0    35.453         -4.895637906104430          2.584370563489365         -5.193912279082560
  11 Cl   17.0000    0    35.453         -8.863552561282900         -6.528928203652567         -2.002183736150905
* core charge reduced due to ECP

--------------------------------
INTERNAL COORDINATES (ANGSTROEM)
--------------------------------
 C      0   0   0   0.000000     0.000     0.000
 N      1   0   0   1.483957     0.000     0.000
 H      1   2   0   1.092397   109.099     0.000
 H      1   2   3   1.092422   109.061   240.173
 H      1   2   3   1.092367   109.305   120.114
 H      2   1   3   1.047888   114.015    60.210
 H      2   1   3   1.043749   114.711   299.789
 H      2   1   3   1.042540   114.361   179.708
 Pb     6   2   1   3.352963   107.827   194.073
 Cl     9   6   2   2.573538    97.364     8.550
 Cl     8   2   1   1.961720   150.166   359.814
 Cl     9   6   2   2.573382    74.039   211.301

---------------------------
INTERNAL COORDINATES (A.U.)
---------------------------
 C      0   0   0   0.000000     0.000     0.000
 N      1   0   0   2.804273     0.000     0.000
 H      1   2   0   2.064332   109.099     0.000
 H      1   2   3   2.064378   109.061   240.173
 H      1   2   3   2.064274   109.305   120.114
 H      2   1   3   1.980222   114.015    60.210
 H      2   1   3   1.972399   114.711   299.789
 H      2   1   3   1.970116   114.361   179.708
 Pb     6   2   1   6.336182   107.827   194.073
 Cl     9   6   2   4.863282    97.364     8.550
 Cl     8   2   1   3.707113   150.166   359.814
 Cl     9   6   2   4.862987    74.039   211.301

---------------------
BASIS SET INFORMATION
---------------------
There are 5 groups of distinct atoms

 Group   1 Type C   : 11s6p2d1f contracted to 5s3p2d1f pattern {62111/411/11/1}
 Group   2 Type N   : 11s6p2d1f contracted to 5s3p2d1f pattern {62111/411/11/1}
 Group   3 Type H   : 5s1p contracted to 3s1p pattern {311/1}
 Group   4 Type Pb  : 10s9p8d2f contracted to 6s5p3d2f pattern {421111/33111/611/11}
 Group   5 Type Cl  : 14s9p3d1f contracted to 5s5p2d1f pattern {73211/51111/21/1}

Atom   0C    basis set group =>   1
Atom   1N    basis set group =>   2
Atom   2H    basis set group =>   3
Atom   3H    basis set group =>   3
Atom   4H    basis set group =>   3
Atom   5H    basis set group =>   3
Atom   6H    basis set group =>   3
Atom   7H    basis set group =>   3
Atom   8Pb   basis set group =>   4
Atom   9Cl   basis set group =>   5
Atom  10Cl   basis set group =>   5
Atom  11Cl   basis set group =>   5
-------------------------------
AUXILIARY BASIS SET INFORMATION
-------------------------------
There are 5 groups of distinct atoms

 Group   1 Type C   : 12s5p4d2f1g contracted to 6s4p3d1f1g pattern {711111/2111/211/2/1}
 Group   2 Type N   : 12s5p4d2f1g contracted to 6s4p3d1f1g pattern {711111/2111/211/2/1}
 Group   3 Type H   : 5s2p1d contracted to 3s1p1d pattern {311/2/1}
 Group   4 Type Pb  : 31s12p8d6f3g contracted to 31s12p8d6f3g pattern {1111111111111111111111111111111/111111111111/11111111/111111/111}
 Group   5 Type Cl  : 14s5p5d2f1g contracted to 8s4p3d1f1g pattern {71111111/2111/311/2/1}

Atom   0C    basis set group =>   1
Atom   1N    basis set group =>   2
Atom   2H    basis set group =>   3
Atom   3H    basis set group =>   3
Atom   4H    basis set group =>   3
Atom   5H    basis set group =>   3
Atom   6H    basis set group =>   3
Atom   7H    basis set group =>   3
Atom   8Pb   basis set group =>   4
Atom   9Cl   basis set group =>   5
Atom  10Cl   basis set group =>   5
Atom  11Cl   basis set group =>   5

-------------------------
ECP PARAMETER INFORMATION
-------------------------

 Group 1, Type Pb ECP SD(60,MDF) (replacing 60 core electrons, lmax=5)

Atom   8Pb   ECP group =>   1


------------------------------------------------------------------------------
                           ORCA GTO INTEGRAL CALCULATION
                           -- RI-GTO INTEGRALS CHOSEN --
------------------------------------------------------------------------------

                         BASIS SET STATISTICS AND STARTUP INFO

Gaussian basis set:
 # of primitive gaussian shells          ...  186
 # of primitive gaussian functions       ...  420
 # of contracted shells                  ...  101
 # of contracted basis functions         ...  259
 Highest angular momentum                ...    3
 Maximum contraction depth               ...    7
Auxiliary gaussian basis set:
 # of primitive gaussian shells          ...  237
 # of primitive gaussian functions       ...  643
 # of contracted shells                  ...  171
 # of contracted aux-basis functions     ...  493
 Highest angular momentum                ...    4
 Maximum contraction depth               ...    7
Ratio of auxiliary to basis functions    ...  1.90
Integral package used                  ... LIBINT
 One Electron integrals                  
   ECP integrals                         ... done
 Ordering auxiliary basis shells         ... done
 Integral threshhold             Thresh  ...  2.500e-11
 Primitive cut-off               TCut    ...  2.500e-12
 Pre-screening matrix                    ... done
 Shell pair data                         ... 
 Ordering of the shell pairs             ... done (   0.001 sec) 4054 of 5151 pairs
 Determination of significant pairs      ... done (   0.000 sec)
 Creation of shell pair data             ... done (   0.001 sec)
 Storage of shell pair data              ... done (   0.001 sec)
 Shell pair data done in (   0.003 sec)
 Computing two index integrals           ... done
 Cholesky decomposition of the V-matrix  ... done


Timings:
 Total evaluation time                   ...   0.592 sec (  0.010 min)
 One electron matrix time                ...   0.284 sec (  0.005 min) = 48.0%
 Schwartz matrix evaluation time         ...   0.220 sec (  0.004 min) = 37.2%
 Two index repulsion integral time       ...   0.009 sec (  0.000 min) =  1.5%
 Cholesky decomposition of V             ...   0.049 sec (  0.001 min) =  8.2%
 Three index repulsion integral time     ...   0.000 sec (  0.000 min) =  0.0%

-------------------------------------------------------------------------------
                                 ORCA SCF
-------------------------------------------------------------------------------

------------
SCF SETTINGS
------------
Hamiltonian:
 Density Functional     Method          .... DFT(GTOs)
 Exchange Functional    Exchange        .... B88
   X-Alpha parameter    XAlpha          ....  0.666667
   Becke's b parameter  XBeta           ....  0.004200
 Correlation Functional Correlation     .... LYP
 LDA part of GGA corr.  LDAOpt          .... VWN-3
 Gradients option       PostSCFGGA      .... off
 Hybrid DFT is turned on
   Fraction HF Exchange ScalHFX         ....  0.530000
   Scaling of DF-GGA-X  ScalDFX         ....  0.470000
   Scaling of DF-GGA-C  ScalDFC         ....  0.730000
   Scaling of DF-LDA-C  ScalLDAC        ....  0.730000
   Perturbative correction              ....  0.270000
 RI-approximation to the Coulomb term is turned on
   Number of auxiliary basis functions  .... 493
   RIJ-COSX (HFX calculated with COS-X)).... on


General Settings:
 Integral files         IntName         .... PbMACl3_mp2_md2_2.orca
 Hartree-Fock type      HFTyp           .... RHF
 Total Charge           Charge          ....    0
 Multiplicity           Mult            ....    1
 Number of Electrons    NEL             ....   92
 Basis Dimension        Dim             ....  259
 Nuclear Repulsion      ENuc            ....    502.5837798595 Eh

Convergence Acceleration:
 DIIS                   CNVDIIS         .... on
   Start iteration      DIISMaxIt       ....     0
   Startup error        DIISStart       ....  0.200000
   # of expansion vecs  DIISMaxEq       ....     5
   Bias factor          DIISBfac        ....   1.050
   Max. coefficient     DIISMaxC        ....  10.000
 Newton-Raphson         CNVNR           .... off
 SOSCF                  CNVSOSCF        .... on
   Start iteration      SOSCFMaxIt      ....   150
   Startup grad/error   SOSCFStart      ....  0.001000
 Level Shifting         CNVShift        .... on
   Level shift para.    LevelShift      ....    0.2500
   Turn off err/grad.   ShiftErr        ....    0.0000
 Zerner damping         CNVZerner       .... off
 Static damping         CNVDamp         .... on
   Fraction old density DampFac         ....    0.8500
   Max. Damping (<1)    DampMax         ....    0.9800
   Min. Damping (>=0)   DampMin         ....    0.0000
   Turn off err/grad.   DampErr         ....    0.0300
 Fernandez-Rico         CNVRico         .... off

SCF Procedure:
 Maximum # iterations   MaxIter         ....   125
 SCF integral mode      SCFMode         .... Direct
   Integral package                     .... LIBINT
 Reset frequeny         DirectResetFreq ....    20
 Integral Threshold     Thresh          ....  2.500e-11 Eh
 Primitive CutOff       TCut            ....  2.500e-12 Eh

Convergence Tolerance:
 Convergence Check Mode ConvCheckMode   .... Total+1el-Energy
 Energy Change          TolE            ....  1.000e-08 Eh
 1-El. energy change                    ....  1.000e-05 Eh
 Orbital Gradient       TolG            ....  1.000e-05
 Orbital Rotation angle TolX            ....  1.000e-05
 DIIS Error             TolErr          ....  5.000e-07


Diagonalization of the overlap matrix:
Smallest eigenvalue                        ... 1.083e-03
Time for diagonalization                   ...    0.264 sec
Threshold for overlap eigenvalues          ... 1.000e-08
Number of eigenvalues below threshold      ... 0
Time for construction of square roots      ...    0.006 sec
Total time needed                          ...    0.270 sec

---------------------
INITIAL GUESS: MOREAD
---------------------
Guess MOs are being read from file: previous.gbw
Input geometry compatible with but different from current geometry
Input basis set matches current basis set (good)
MOs were renormalized
MOs were reorthogonalized (Schmidt)
                      ------------------
                      INITIAL GUESS DONE (   0.1 sec)
                      ------------------
-------------------
DFT GRID GENERATION
-------------------

General Integration Accuracy     IntAcc      ...  5.010
Radial Grid Type                 RadialGrid  ... Gauss-Chebyshev
Angular Grid (max. acc.)         AngularGrid ... Lebedev-434
Angular grid pruning method      GridPruning ... 3 (G Style)
Weight generation scheme         WeightScheme... Becke
Basis function cutoff            BFCut       ...    1.0000e-11
Integration weight cutoff        WCut        ...    1.0000e-14
Grids for H and He will be reduced by one unit

# of grid points (after initial pruning)     ... 115882 (   0.0 sec)
# of grid points (after weights+screening)   ... 109792 (   0.2 sec)
nearest neighbour list constructed           ...    0.0 sec
Grid point re-assignment to atoms done       ...    0.0 sec
Grid point division into batches done        ...    1.0 sec
Reduced shell lists constructed in    3.4 sec

Total number of grid points                  ...   109792
Total number of batches                      ...     1723
Average number of points per batch           ...       63
Average number of grid points per atom       ...     9149
Average number of shells per batch           ...    49.20 (48.72%)
Average number of basis functions per batch  ...   125.91 (48.62%)
Average number of large shells per batch     ...    36.46 (74.09%)
Average number of large basis fcns per batch ...    92.52 (73.48%)
Maximum spatial batch extension              ...  35.03, 30.33, 35.48 au
Average spatial batch extension              ...   2.52,  2.50,  2.50 au

Time for grid setup =    3.627 sec

--------------------
COSX GRID GENERATION
--------------------

General Integration Accuracy     IntAcc      ...  3.340
Radial Grid Type                 RadialGrid  ... Gauss-Chebyshev
Angular Grid (max. acc.)         AngularGrid ... Lebedev-50
Angular grid pruning method      GridPruning ... 3 (G Style)
Weight generation scheme         WeightScheme... Becke
Basis function cutoff            BFCut       ...    1.0000e-11
Integration weight cutoff        WCut        ...    1.0000e-14
Grids for H and He will be reduced by one unit

# of grid points (after initial pruning)     ...   6578 (   0.0 sec)
# of grid points (after weights+screening)   ...   6250 (   0.0 sec)
nearest neighbour list constructed           ...    0.0 sec
Grid point re-assignment to atoms done       ...    0.0 sec
Grid point division into batches done        ...    0.0 sec
Reduced shell lists constructed in    0.2 sec

Total number of grid points                  ...     6250
Total number of batches                      ...      103
Average number of points per batch           ...       60
Average number of grid points per atom       ...      521
Average number of shells per batch           ...    60.08 (59.48%)
Average number of basis functions per batch  ...   157.06 (60.64%)
Average number of large shells per batch     ...    45.47 (75.69%)
Average number of large basis fcns per batch ...   116.99 (74.49%)
Maximum spatial batch extension              ...  44.74, 33.73, 31.83 au
Average spatial batch extension              ...   7.06,  6.80,  6.72 au

Overlap Fitting                  UseSFitting ... on
Constructing numerical overlap ... done (      0.1 sec)
Inverting numerical overlap    ... done (      0.0 sec)
Obtaining analytic overlap     ... done (      0.0 sec)
Final contraction and storage  ... done (      0.0 sec)


General Integration Accuracy     IntAcc      ...  3.670
Radial Grid Type                 RadialGrid  ... Gauss-Chebyshev
Angular Grid (max. acc.)         AngularGrid ... Lebedev-50
Angular grid pruning method      GridPruning ... 3 (G Style)
Weight generation scheme         WeightScheme... Becke
Basis function cutoff            BFCut       ...    1.0000e-11
Integration weight cutoff        WCut        ...    1.0000e-14
Grids for H and He will be reduced by one unit

# of grid points (after initial pruning)     ...   8124 (   0.0 sec)
# of grid points (after weights+screening)   ...   7693 (   0.0 sec)
nearest neighbour list constructed           ...    0.0 sec
Grid point re-assignment to atoms done       ...    0.0 sec
Grid point division into batches done        ...    0.0 sec
Reduced shell lists constructed in    0.2 sec

Total number of grid points                  ...     7693
Total number of batches                      ...      125
Average number of points per batch           ...       61
Average number of grid points per atom       ...      641
Average number of shells per batch           ...    59.30 (58.71%)
Average number of basis functions per batch  ...   154.37 (59.60%)
Average number of large shells per batch     ...    45.17 (76.18%)
Average number of large basis fcns per batch ...   115.87 (75.06%)
Maximum spatial batch extension              ...  46.50, 33.05, 33.61 au
Average spatial batch extension              ...   6.39,  6.10,  6.10 au

Overlap Fitting                  UseSFitting ... on
Constructing numerical overlap ... done (      0.1 sec)
Inverting numerical overlap    ... done (      0.0 sec)
Obtaining analytic overlap     ... done (      0.0 sec)
Final contraction and storage  ... done (      0.0 sec)


General Integration Accuracy     IntAcc      ...  4.010
Radial Grid Type                 RadialGrid  ... Gauss-Chebyshev
Angular Grid (max. acc.)         AngularGrid ... Lebedev-110
Angular grid pruning method      GridPruning ... 3 (G Style)
Weight generation scheme         WeightScheme... Becke
Basis function cutoff            BFCut       ...    1.0000e-11
Integration weight cutoff        WCut        ...    1.0000e-14
Grids for H and He will be reduced by one unit

# of grid points (after initial pruning)     ...  15170 (   0.0 sec)
# of grid points (after weights+screening)   ...  14494 (   0.0 sec)
nearest neighbour list constructed           ...    0.0 sec
Grid point re-assignment to atoms done       ...    0.0 sec
Grid point division into batches done        ...    0.0 sec
Reduced shell lists constructed in    0.4 sec

Total number of grid points                  ...    14494
Total number of batches                      ...      232
Average number of points per batch           ...       62
Average number of grid points per atom       ...     1208
Average number of shells per batch           ...    55.78 (55.22%)
Average number of basis functions per batch  ...   145.10 (56.02%)
Average number of large shells per batch     ...    41.94 (75.19%)
Average number of large basis fcns per batch ...   107.42 (74.04%)
Maximum spatial batch extension              ...  29.18, 28.91, 33.70 au
Average spatial batch extension              ...   5.37,  5.20,  5.07 au

Overlap Fitting                  UseSFitting ... on
Constructing numerical overlap ... done (      0.2 sec)
Inverting numerical overlap    ... done (      0.0 sec)
Obtaining analytic overlap     ... done (      0.0 sec)
Final contraction and storage  ... done (      0.0 sec)

Time for X-Grid setup             =    1.318 sec
--------------
SCF ITERATIONS
--------------
ITER       Energy         Delta-E        Max-DP      RMS-DP      [F,P]     Damp
               ***  Starting incremental Fock matrix formation  ***
  0  -1668.6107430807   0.000000000000 0.03109849  0.00049545  0.5665170 0.8500
  1  -1668.6490326991  -0.038289618445 0.02937015  0.00058020  0.4820555 0.8500
                               ***Turning on DIIS***
  2  -1668.6853607299  -0.036328030829 0.02555142  0.00055522  0.4099935 0.8500
  3  -1668.7170144773  -0.031653747313 0.02364785  0.00049931  0.3486753 0.8500
  4  -1668.7447451467  -0.027730669424 0.02170134  0.00046058  0.2964594 0.8500
  5  -1668.7689782366  -0.024233089958 0.01990168  0.00042807  0.2520210 0.8500
  6  -1668.7904111395  -0.021432902891 0.01809802  0.00039348  0.2142335 0.8500
  7  -1668.8094228967  -0.019011757150 0.01637392  0.00035933  0.1821104 0.8500
  8  -1668.8262567120  -0.016833815364 0.01458508  0.00032347  0.1548059 0.8500
  9  -1668.8410410236  -0.014784311546 0.01280184  0.00028750  0.1315946 0.8500
 10  -1668.8539738851  -0.012932861457 0.01114594  0.00025388  0.1118620 0.8500
 11  -1668.8652682415  -0.011294356466 0.00967415  0.00022360  0.0950873 0.8500
 12  -1668.8751166176  -0.009848376092 0.00838573  0.00019666  0.0808275 0.8500
 13  -1668.8836871242  -0.008570506589 0.00725412  0.00017262  0.0687059 0.8500
 14  -1668.8911281315  -0.007441007268 0.00625845  0.00015116  0.0584019 0.8500
 15  -1668.8975742109  -0.006446079476 0.00538714  0.00013210  0.0496430 0.8500
 16  -1668.9031477228  -0.005573511839 0.00463075  0.00011530  0.0421976 0.8500
 17  -1668.9079586801  -0.004810957279 0.00397780  0.00010055  0.0358688 0.8500
 18  -1668.9121050224  -0.004146342333 0.00344212  0.00008764  0.0304891 0.8500
 19  -1668.9156734477  -0.003568425342 0.01988984  0.00050887  0.0259161 0.0000
               *** Restarting incremental Fock matrix formation ***
                                   *** Resetting DIIS ***
 20  -1668.9395618751  -0.023888427389 0.00223073  0.00003851  0.0009346 0.0000
               *** Restarting incremental Fock matrix formation ***
                                   *** Resetting DIIS ***
                      *** Initiating the SOSCF procedure ***
                           *** Shutting down DIIS ***
                      *** Re-Reading the Fockian *** 
                      *** Removing any level shift *** 
ITER      Energy       Delta-E        Grad      Rot      Max-DP    RMS-DP
 21  -1668.93681363   0.0027482402  0.000873  0.000873  0.002129  0.000033
               *** Restarting incremental Fock matrix formation ***
 22  -1668.93682286  -0.0000092217  0.000653  0.003228  0.001143  0.000028
 23  -1668.93683265  -0.0000097945  0.000325  0.003212  0.001072  0.000027
 24  -1668.93683549  -0.0000028405  0.000029  0.000159  0.000124  0.000003
 25  -1668.93683560  -0.0000001125  0.000030  0.000059  0.000046  0.000001
 26  -1668.93683562  -0.0000000110  0.000003  0.000028  0.000026  0.000000
                  ***Gradient check signals convergence***
              ***Rediagonalizing the Fockian in SOSCF/NRSCF***

               *****************************************************
               *                     SUCCESS                       *
               *           SCF CONVERGED AFTER  27 CYCLES          *
               *****************************************************

Old exchange energy                            =    -59.146733557 Eh
New exchange energy                            =    -59.149708659 Eh
Exchange energy change after final integration =     -0.002975102 Eh
Total energy after final integration           =  -1668.939810730 Eh
Final COS-X integration done in                =    17.153 sec

----------------
TOTAL SCF ENERGY
----------------

Total Energy       :        -1668.93981073 Eh          -45414.16106 eV

Components:
Nuclear Repulsion  :          502.58377986 Eh           13675.99992 eV
Electronic Energy  :        -2171.52359059 Eh          -59090.16099 eV

One Electron Energy:        -3374.88706068 Eh          -91835.34574 eV
Two Electron Energy:         1203.36347009 Eh           32745.18475 eV

Virial components:
Potential Energy   :        -3206.34773425 Eh          -87249.15751 eV
Kinetic Energy     :         1537.40792352 Eh           41834.99645 eV
Virial Ratio       :            2.08555432


DFT components:
N(Alpha)           :       46.000006032588 electrons
N(Beta)            :       46.000006032588 electrons
N(Total)           :       92.000012065176 electrons
E(X)               :      -52.541568741428 Eh       
E(C)               :       -2.593617026434 Eh       
E(XC)              :      -55.135185767862 Eh       

---------------
SCF CONVERGENCE
---------------

  Last Energy change         ...   -1.2562e-08  Tolerance :   1.0000e-08
  Last MAX-Density change    ...    3.4883e-13  Tolerance :   1.0000e-07
  Last RMS-Density change    ...    2.8773e-15  Tolerance :   5.0000e-09
  Last Orbital Gradient      ...    2.0838e-06  Tolerance :   1.0000e-05
  Last Orbital Rotation      ...    1.1660e-05  Tolerance :   1.0000e-05

             **** THE GBW FILE WAS UPDATED (PbMACl3_mp2_md2_2.orca.gbw) ****
             **** DENSITY FILE WAS UPDATED (PbMACl3_mp2_md2_2.orca.scfp.tmp) ****
             **** ENERGY FILE WAS UPDATED (PbMACl3_mp2_md2_2.orca.en.tmp) ****
----------------
ORBITAL ENERGIES
----------------

  NO   OCC          E(Eh)            E(eV) 
   0   2.0000    -102.882973     -2799.5880 
   1   2.0000    -102.882760     -2799.5822 
   2   2.0000    -102.759800     -2796.2363 
   3   2.0000     -14.990550      -407.9136 
   4   2.0000     -10.711459      -291.4736 
   5   2.0000      -9.889233      -269.0997 
   6   2.0000      -9.888993      -269.0932 
   7   2.0000      -9.766001      -265.7464 
   8   2.0000      -7.525868      -204.7893 
   9   2.0000      -7.525641      -204.7831 
  10   2.0000      -7.524857      -204.7618 
  11   2.0000      -7.524630      -204.7556 
  12   2.0000      -7.524352      -204.7480 
  13   2.0000      -7.524092      -204.7409 
  14   2.0000      -7.402755      -201.4392 
  15   2.0000      -7.401729      -201.4113 
  16   2.0000      -7.401710      -201.4108 
  17   2.0000      -5.880217      -160.0089 
  18   2.0000      -3.654902       -99.4550 
  19   2.0000      -3.652594       -99.3921 
  20   2.0000      -3.644724       -99.1780 
  21   2.0000      -1.159685       -31.5566 
  22   2.0000      -1.045402       -28.4468 
  23   2.0000      -1.044479       -28.4217 
  24   2.0000      -1.041682       -28.3456 
  25   2.0000      -1.037042       -28.2194 
  26   2.0000      -1.035233       -28.1701 
  27   2.0000      -0.896415       -24.3927 
  28   2.0000      -0.895190       -24.3594 
  29   2.0000      -0.867745       -23.6126 
  30   2.0000      -0.780644       -21.2424 
  31   2.0000      -0.689554       -18.7637 
  32   2.0000      -0.673470       -18.3260 
  33   2.0000      -0.614415       -16.7191 
  34   2.0000      -0.604442       -16.4477 
  35   2.0000      -0.521199       -14.1825 
  36   2.0000      -0.521073       -14.1791 
  37   2.0000      -0.427491       -11.6326 
  38   2.0000      -0.382066       -10.3965 
  39   2.0000      -0.380127       -10.3438 
  40   2.0000      -0.370116       -10.0714 
  41   2.0000      -0.368788       -10.0352 
  42   2.0000      -0.325564        -8.8590 
  43   2.0000      -0.272432        -7.4133 
  44   2.0000      -0.260808        -7.0969 
  45   2.0000      -0.260037        -7.0760 
  46   0.0000      -0.123240        -3.3535 
  47   0.0000      -0.103542        -2.8175 
  48   0.0000       0.010484         0.2853 
  49   0.0000       0.013284         0.3615 
  50   0.0000       0.062085         1.6894 
  51   0.0000       0.068384         1.8608 
  52   0.0000       0.085654         2.3308 
  53   0.0000       0.097090         2.6420 
  54   0.0000       0.110015         2.9937 
  55   0.0000       0.127250         3.4626 
  56   0.0000       0.133886         3.6432 
  57   0.0000       0.134606         3.6628 
  58   0.0000       0.155430         4.2295 
  59   0.0000       0.169212         4.6045 
  60   0.0000       0.189103         5.1458 
  61   0.0000       0.196700         5.3525 
  62   0.0000       0.222051         6.0423 
  63   0.0000       0.244901         6.6641 
  64   0.0000       0.254412         6.9229 
  65   0.0000       0.262088         7.1318 
  66   0.0000       0.286496         7.7960 
  67   0.0000       0.291283         7.9262 
  68   0.0000       0.307703         8.3730 
  69   0.0000       0.339402         9.2356 
  70   0.0000       0.380473        10.3532 
  71   0.0000       0.395597        10.7647 
  72   0.0000       0.419183        11.4065 
  73   0.0000       0.419996        11.4287 
  74   0.0000       0.424674        11.5560 
  75   0.0000       0.436753        11.8846 
  76   0.0000       0.440946        11.9987 
  77   0.0000       0.446459        12.1488 
  78   0.0000       0.464766        12.6469 
  79   0.0000       0.466915        12.7054 
  80   0.0000       0.478865        13.0306 
  81   0.0000       0.492654        13.4058 
  82   0.0000       0.493448        13.4274 
  83   0.0000       0.495415        13.4809 
  84   0.0000       0.500948        13.6315 
  85   0.0000       0.515039        14.0149 
  86   0.0000       0.527835        14.3631 
  87   0.0000       0.534506        14.5446 
  88   0.0000       0.538721        14.6593 
  89   0.0000       0.542934        14.7740 
  90   0.0000       0.555454        15.1147 
  91   0.0000       0.568107        15.4590 
  92   0.0000       0.581126        15.8132 
  93   0.0000       0.589829        16.0501 
  94   0.0000       0.609104        16.5746 
  95   0.0000       0.613829        16.7031 
  96   0.0000       0.619255        16.8508 
  97   0.0000       0.621781        16.9195 
  98   0.0000       0.635479        17.2922 
  99   0.0000       0.653914        17.7939 
 100   0.0000       0.656261        17.8578 
 101   0.0000       0.664420        18.0798 
 102   0.0000       0.681966        18.5572 
 103   0.0000       0.698991        19.0205 
 104   0.0000       0.713315        19.4103 
 105   0.0000       0.723511        19.6877 
 106   0.0000       0.727070        19.7846 
 107   0.0000       0.744430        20.2570 
 108   0.0000       0.747435        20.3387 
 109   0.0000       0.785393        21.3716 
 110   0.0000       0.802289        21.8314 
 111   0.0000       0.825998        22.4766 
 112   0.0000       0.862424        23.4677 
 113   0.0000       0.872817        23.7506 
 114   0.0000       0.887669        24.1547 
 115   0.0000       0.903658        24.5898 
 116   0.0000       0.925944        25.1962 
 117   0.0000       0.986551        26.8454 
 118   0.0000       1.006195        27.3800 
 119   0.0000       1.007464        27.4145 
 120   0.0000       1.030763        28.0485 
 121   0.0000       1.037385        28.2287 
 122   0.0000       1.069040        29.0900 
 123   0.0000       1.095798        29.8182 
 124   0.0000       1.180423        32.1209 
 125   0.0000       1.204159        32.7668 
 126   0.0000       1.220257        33.2049 
 127   0.0000       1.260278        34.2939 
 128   0.0000       1.289210        35.0812 
 129   0.0000       1.336482        36.3675 
 130   0.0000       1.493391        40.6372 
 131   0.0000       1.567556        42.6554 
 132   0.0000       1.570626        42.7389 
 133   0.0000       1.590658        43.2840 
 134   0.0000       1.599341        43.5203 
 135   0.0000       1.605144        43.6782 
 136   0.0000       1.701850        46.3097 
 137   0.0000       1.800545        48.9953 
 138   0.0000       1.822213        49.5849 
 139   0.0000       1.869199        50.8635 
 140   0.0000       1.874458        51.0066 
 141   0.0000       1.879429        51.1419 
 142   0.0000       1.890607        51.4460 
 143   0.0000       1.897966        51.6463 
 144   0.0000       1.902457        51.7685 
 145   0.0000       1.918711        52.2108 
 146   0.0000       1.942482        52.8576 
 147   0.0000       1.958415        53.2912 
 148   0.0000       1.970967        53.6327 
 149   0.0000       1.972056        53.6624 
 150   0.0000       1.995316        54.2953 
 151   0.0000       2.002186        54.4823 
 152   0.0000       2.010974        54.7214 
 153   0.0000       2.017671        54.9036 
 154   0.0000       2.021976        55.0208 
 155   0.0000       2.046035        55.6754 
 156   0.0000       2.047259        55.7087 
 157   0.0000       2.078501        56.5589 
 158   0.0000       2.080704        56.6188 
 159   0.0000       2.087994        56.8172 
 160   0.0000       2.091184        56.9040 
 161   0.0000       2.095197        57.0132 
 162   0.0000       2.108123        57.3649 
 163   0.0000       2.113883        57.5217 
 164   0.0000       2.132767        58.0355 
 165   0.0000       2.169259        59.0285 
 166   0.0000       2.179126        59.2970 
 167   0.0000       2.228451        60.6392 
 168   0.0000       2.229275        60.6617 
 169   0.0000       2.229866        60.6777 
 170   0.0000       2.230342        60.6907 
 171   0.0000       2.231595        60.7248 
 172   0.0000       2.233571        60.7785 
 173   0.0000       2.242872        61.0317 
 174   0.0000       2.269325        61.7515 
 175   0.0000       2.270332        61.7789 
 176   0.0000       2.275980        61.9326 
 177   0.0000       2.279642        62.0322 
 178   0.0000       2.314637        62.9845 
 179   0.0000       2.320967        63.1567 
 180   0.0000       2.335095        63.5412 
 181   0.0000       2.339359        63.6572 
 182   0.0000       2.345111        63.8137 
 183   0.0000       2.347059        63.8667 
 184   0.0000       2.350706        63.9660 
 185   0.0000       2.360146        64.2228 
 186   0.0000       2.368782        64.4578 
 187   0.0000       2.369726        64.4835 
 188   0.0000       2.371916        64.5431 
 189   0.0000       2.373848        64.5957 
 190   0.0000       2.383156        64.8490 
 191   0.0000       2.391901        65.0869 
 192   0.0000       2.395916        65.1962 
 193   0.0000       2.398616        65.2697 
 194   0.0000       2.412771        65.6548 
 195   0.0000       2.452779        66.7435 
 196   0.0000       2.459534        66.9273 
 197   0.0000       2.478470        67.4426 
 198   0.0000       2.488349        67.7114 
 199   0.0000       2.506802        68.2135 
 200   0.0000       2.538720        69.0821 
 201   0.0000       2.554007        69.4981 
 202   0.0000       2.615156        71.1620 
 203   0.0000       2.629713        71.5581 
 204   0.0000       2.642536        71.9071 
 205   0.0000       2.687178        73.1218 
 206   0.0000       2.736624        74.4673 
 207   0.0000       2.771813        75.4249 
 208   0.0000       2.801614        76.2358 
 209   0.0000       2.937377        79.9301 
 210   0.0000       2.988702        81.3267 
 211   0.0000       3.040205        82.7282 
 212   0.0000       3.112015        84.6822 
 213   0.0000       3.127407        85.1011 
 214   0.0000       3.165111        86.1271 
 215   0.0000       3.199598        87.0655 
 216   0.0000       3.206566        87.2551 
 217   0.0000       3.280123        89.2567 
 218   0.0000       3.397291        92.4450 
 219   0.0000       3.551985        96.6544 
 220   0.0000       3.567407        97.0741 
 221   0.0000       3.600305        97.9693 
 222   0.0000       3.753041       102.1254 
 223   0.0000       3.804718       103.5316 
 224   0.0000       3.901389       106.1622 
 225   0.0000       4.162870       113.2774 
 226   0.0000       4.183957       113.8513 
 227   0.0000       4.383389       119.2781 
 228   0.0000       4.444999       120.9546 
 229   0.0000       4.821965       131.2123 
 230   0.0000       4.829457       131.4162 
 231   0.0000       4.922955       133.9604 
 232   0.0000       4.928561       134.1130 
 233   0.0000       5.040971       137.1718 
 234   0.0000       5.074198       138.0760 
 235   0.0000       5.122858       139.4000 
 236   0.0000       5.303825       144.3244 
 237   0.0000       5.448481       148.2607 
 238   0.0000       5.486024       149.2823 
 239   0.0000       5.795689       157.7087 
 240   0.0000      11.012151       299.6558 
 241   0.0000      11.030106       300.1444 
 242   0.0000      11.030738       300.1616 
 243   0.0000      11.039327       300.3954 
 244   0.0000      11.121596       302.6340 
 245   0.0000      11.128123       302.8116 
 246   0.0000      11.145521       303.2851 
 247   0.0000      11.146436       303.3099 
 248   0.0000      11.204045       304.8776 
 249   0.0000      22.652742       616.4125 
 250   0.0000      24.905433       677.7113 
 251   0.0000      25.016828       680.7425 
 252   0.0000      25.147209       684.2903 
 253   0.0000      32.290978       878.6822 
 254   0.0000      35.427666       964.0358 
 255   0.0000      35.622935       969.3493 
 256   0.0000      35.663379       970.4499 
 257   0.0000      35.731917       972.3149 
 258   0.0000     123.508576      3360.8392 

                    ********************************
                    * MULLIKEN POPULATION ANALYSIS *
                    ********************************

-----------------------
MULLIKEN ATOMIC CHARGES
-----------------------
   0 C :   -0.225623
   1 N :   -0.306486
   2 H :    0.133957
   3 H :    0.175786
   4 H :    0.175843
   5 H :    0.268654
   6 H :    0.272225
   7 H :    0.257553
   8 Pb:    0.940862
   9 Cl:   -0.467978
  10 Cl:   -0.753063
  11 Cl:   -0.471730
Sum of atomic charges:   -0.0000000

--------------------------------
MULLIKEN REDUCED ORBITAL CHARGES
--------------------------------
  0 C s       :     3.253881  s :     3.253881
      pz      :     0.983104  p :     2.899194
      px      :     1.003411
      py      :     0.912679
      dz2     :     0.005542  d :     0.066462
      dxz     :     0.017832
      dyz     :     0.018632
      dx2y2   :     0.005892
      dxy     :     0.018564
      f0      :     0.000361  f :     0.006085
      f+1     :     0.000491
      f-1     :     0.000676
      f+2     :     0.000748
      f-2     :     0.002704
      f+3     :     0.000535
      f-3     :     0.000571
  1 N s       :     3.433371  s :     3.433371
      pz      :     1.276949  p :     3.819996
      px      :     1.273391
      py      :     1.269655
      dz2     :     0.005786  d :     0.050852
      dxz     :     0.013135
      dyz     :     0.012484
      dx2y2   :     0.006627
      dxy     :     0.012821
      f0      :     0.000132  f :     0.002267
      f+1     :     0.000179
      f-1     :     0.000212
      f+2     :     0.000234
      f-2     :     0.001154
      f+3     :     0.000170
      f-3     :     0.000185
  2 H s       :     0.844812  s :     0.844812
      pz      :     0.008183  p :     0.021230
      px      :     0.007665
      py      :     0.005383
  3 H s       :     0.801838  s :     0.801838
      pz      :     0.006633  p :     0.022376
      px      :     0.007695
      py      :     0.008048
  4 H s       :     0.801768  s :     0.801768
      pz      :     0.007113  p :     0.022390
      px      :     0.007126
      py      :     0.008151
  5 H s       :     0.698475  s :     0.698475
      pz      :     0.009520  p :     0.032872
      px      :     0.011837
      py      :     0.011515
  6 H s       :     0.694662  s :     0.694662
      pz      :     0.011502  p :     0.033113
      px      :     0.009876
      py      :     0.011735
  7 H s       :     0.693882  s :     0.693882
      pz      :     0.017025  p :     0.048566
      px      :     0.015909
      py      :     0.015632
  8 Pbs       :     3.963626  s :     3.963626
      pz      :     2.313284  p :     6.867148
      px      :     2.306471
      py      :     2.247393
      dz2     :     2.044449  d :    10.192496
      dxz     :     2.066070
      dyz     :     2.027959
      dx2y2   :     2.028245
      dxy     :     2.025772
      f0      :     0.004967  f :     0.035868
      f+1     :     0.008842
      f-1     :     0.002611
      f+2     :     0.006890
      f-2     :     0.007182
      f+3     :     0.002623
      f-3     :     0.002753
  9 Cls       :     5.959092  s :     5.959092
      pz      :     3.796179  p :    11.490902
      px      :     3.801198
      py      :     3.893525
      dz2     :     0.004206  d :     0.017297
      dxz     :     0.006957
      dyz     :     0.002880
      dx2y2   :     0.001799
      dxy     :     0.001455
      f0      :     0.000084  f :     0.000688
      f+1     :     0.000229
      f-1     :     0.000060
      f+2     :     0.000137
      f-2     :     0.000113
      f+3     :     0.000031
      f-3     :     0.000033
 10 Cls       :     5.963320  s :     5.963320
      pz      :     3.961115  p :    11.782772
      px      :     3.963145
      py      :     3.858512
      dz2     :     0.000869  d :     0.006667
      dxz     :     0.000679
      dyz     :     0.001783
      dx2y2   :     0.001678
      dxy     :     0.001658
      f0      :     0.000047  f :     0.000305
      f+1     :     0.000009
      f-1     :     0.000022
      f+2     :     0.000050
      f-2     :     0.000071
      f+3     :     0.000081
      f-3     :     0.000025
 11 Cls       :     5.958881  s :     5.958881
      pz      :     3.793754  p :    11.495028
      px      :     3.808424
      py      :     3.892850
      dz2     :     0.002683  d :     0.017131
      dxz     :     0.007301
      dyz     :     0.001425
      dx2y2   :     0.003304
      dxy     :     0.002417
      f0      :     0.000072  f :     0.000690
      f+1     :     0.000184
      f-1     :     0.000019
      f+2     :     0.000201
      f-2     :     0.000099
      f+3     :     0.000060
      f-3     :     0.000054


                     *******************************
                     * LOEWDIN POPULATION ANALYSIS *
                     *******************************

----------------------
LOEWDIN ATOMIC CHARGES
----------------------
   0 C :   -0.277840
   1 N :    0.093700
   2 H :    0.114463
   3 H :    0.134055
   4 H :    0.133993
   5 H :    0.194791
   6 H :    0.194087
   7 H :    0.114682
   8 Pb:    0.401529
   9 Cl:   -0.204594
  10 Cl:   -0.691755
  11 Cl:   -0.207113

-------------------------------
LOEWDIN REDUCED ORBITAL CHARGES
-------------------------------
  0 C s       :     2.858536  s :     2.858536
      pz      :     1.037094  p :     3.087638
      px      :     1.049620
      py      :     1.000924
      dz2     :     0.025855  d :     0.294765
      dxz     :     0.078983
      dyz     :     0.080432
      dx2y2   :     0.030473
      dxy     :     0.079020
      f0      :     0.005243  f :     0.036901
      f+1     :     0.003775
      f-1     :     0.005570
      f+2     :     0.004165
      f-2     :     0.007422
      f+3     :     0.004984
      f-3     :     0.005743
  1 N s       :     3.007966  s :     3.007966
      pz      :     1.246125  p :     3.723380
      px      :     1.241996
      py      :     1.235259
      dz2     :     0.017992  d :     0.165356
      dxz     :     0.040587
      dyz     :     0.042988
      dx2y2   :     0.019540
      dxy     :     0.044249
      f0      :     0.001541  f :     0.009598
      f+1     :     0.001121
      f-1     :     0.001397
      f+2     :     0.001049
      f-2     :     0.001707
      f+3     :     0.001283
      f-3     :     0.001501
  2 H s       :     0.823482  s :     0.823482
      pz      :     0.022919  p :     0.062055
      px      :     0.021810
      py      :     0.017326
  3 H s       :     0.802264  s :     0.802264
      pz      :     0.018737  p :     0.063681
      px      :     0.023222
      py      :     0.021721
  4 H s       :     0.802333  s :     0.802333
      pz      :     0.021559  p :     0.063674
      px      :     0.020148
      py      :     0.021968
  5 H s       :     0.708704  s :     0.708704
      pz      :     0.030964  p :     0.096504
      px      :     0.032875
      py      :     0.032665
  6 H s       :     0.707985  s :     0.707985
      pz      :     0.032023  p :     0.097928
      px      :     0.032520
      py      :     0.033385
  7 H s       :     0.721271  s :     0.721271
      pz      :     0.058152  p :     0.164046
      px      :     0.053950
      py      :     0.051944
  8 Pbs       :     3.843895  s :     3.843895
      pz      :     2.422174  p :     7.125696
      px      :     2.408886
      py      :     2.294636
      dz2     :     2.102469  d :    10.534001
      dxz     :     2.231837
      dyz     :     2.063153
      dx2y2   :     2.079683
      dxy     :     2.056858
      f0      :     0.011253  f :     0.094878
      f+1     :     0.025878
      f-1     :     0.006338
      f+2     :     0.020894
      f-2     :     0.017721
      f+3     :     0.006321
      f-3     :     0.006472
  9 Cls       :     5.782406  s :     5.782406
      pz      :     3.770973  p :    11.389330
      px      :     3.767923
      py      :     3.850434
      dz2     :     0.006297  d :     0.031339
      dxz     :     0.016246
      dyz     :     0.004260
      dx2y2   :     0.002331
      dxy     :     0.002205
      f0      :     0.000058  f :     0.001519
      f+1     :     0.000700
      f-1     :     0.000130
      f+2     :     0.000290
      f-2     :     0.000256
      f+3     :     0.000028
      f-3     :     0.000056
 10 Cls       :     5.928510  s :     5.928510
      pz      :     3.948915  p :    11.753386
      px      :     3.952218
      py      :     3.852252
      dz2     :     0.001075  d :     0.009333
      dxz     :     0.000772
      dyz     :     0.002687
      dx2y2   :     0.002298
      dxy     :     0.002501
      f0      :     0.000087  f :     0.000526
      f+1     :     0.000010
      f-1     :     0.000022
      f+2     :     0.000092
      f-2     :     0.000130
      f+3     :     0.000157
      f-3     :     0.000028
 11 Cls       :     5.782176  s :     5.782176
      pz      :     3.761780  p :    11.392222
      px      :     3.781343
      py      :     3.849099
      dz2     :     0.002096  d :     0.031196
      dxz     :     0.017937
      dyz     :     0.001685
      dx2y2   :     0.006719
      dxy     :     0.002760
      f0      :     0.000153  f :     0.001519
      f+1     :     0.000351
      f-1     :     0.000022
      f+2     :     0.000611
      f-2     :     0.000158
      f+3     :     0.000138
      f-3     :     0.000085


                      *****************************
                      * MAYER POPULATION ANALYSIS *
                      *****************************

  NA   - Mulliken gross atomic population
  ZA   - Total nuclear charge
  QA   - Mulliken gross atomic charge
  VA   - Mayer's total valence
  BVA  - Mayer's bonded valence
  FA   - Mayer's free valence

  ATOM       NA         ZA         QA         VA         BVA        FA
  0 C      6.2256     6.0000    -0.2256     3.7961     3.7961     0.0000
  1 N      7.3065     7.0000    -0.3065     3.2886     3.2886    -0.0000
  2 H      0.8660     1.0000     0.1340     0.9603     0.9603     0.0000
  3 H      0.8242     1.0000     0.1758     0.9819     0.9819    -0.0000
  4 H      0.8242     1.0000     0.1758     0.9812     0.9812     0.0000
  5 H      0.7313     1.0000     0.2687     0.9379     0.9379     0.0000
  6 H      0.7278     1.0000     0.2722     0.9378     0.9378    -0.0000
  7 H      0.7424     1.0000     0.2576     1.0836     1.0836    -0.0000
  8 Pb    21.0591    22.0000     0.9409     1.7919     1.7919    -0.0000
  9 Cl    17.4680    17.0000    -0.4680     0.9241     0.9241     0.0000
 10 Cl    17.7531    17.0000    -0.7531     0.4439     0.4439     0.0000
 11 Cl    17.4717    17.0000    -0.4717     0.9180     0.9180    -0.0000

  Mayer bond orders larger than 0.1
B(  0-C ,  1-N ) :   0.8849 B(  0-C ,  2-H ) :   0.9620 B(  0-C ,  3-H ) :   0.9623 
B(  0-C ,  4-H ) :   0.9627 B(  1-N ,  5-H ) :   0.8953 B(  1-N ,  6-H ) :   0.8931 
B(  1-N ,  7-H ) :   0.6875 B(  7-H , 10-Cl) :   0.3962 B(  8-Pb,  9-Cl) :   0.8812 
B(  8-Pb, 11-Cl) :   0.8777 

-------
TIMINGS
-------

Total SCF time: 0 days 0 hours 5 min 17 sec 

Total time                  ....     317.133 sec
Sum of individual times     ....     299.025 sec  ( 94.3%)

Fock matrix formation       ....     292.812 sec  ( 92.3%)
  Coulomb formation         ....     226.875 sec  ( 77.5% of F)
  Split-RI-J                ....      20.760 sec  (  7.1% of F)
  Chain of spheres X        ....     223.018 sec  ( 76.2% of F)
  COS-X 1 center corr.      ....       0.000 sec  (  0.0% of F)
  XC integration            ....      65.941 sec  ( 22.5% of F)
    Basis function eval.    ....      31.727 sec  ( 48.1% of XC)
    Density eval.           ....      13.839 sec  ( 21.0% of XC)
    XC-Functional eval.     ....       4.266 sec  (  6.5% of XC)
    XC-Potential eval.      ....      14.785 sec  ( 22.4% of XC)
Diagonalization             ....       0.731 sec  (  0.2%)
Density matrix formation    ....       0.047 sec  (  0.0%)
Population analysis         ....       0.072 sec  (  0.0%)
Initial guess               ....       0.113 sec  (  0.0%)
Orbital Transformation      ....       0.000 sec  (  0.0%)
Orbital Orthonormalization  ....       0.110 sec  (  0.0%)
DIIS solution               ....       0.195 sec  (  0.1%)
SOSCF solution              ....       0.110 sec  (  0.0%)
Grid generation             ....       4.944 sec  (  1.6%)

------------------------------------------------------------------------------
                              ORCA MP2 CALCULATION
------------------------------------------------------------------------------


----------------------
RI-MP2 ENERGY+GRADIENT
----------------------
Dimension of the basis                    ...  259
Memory devoted to MP2                     ... 1000 MB   
Data format for buffers                   ... DOUBLE
Compression type for matrix containers    ... UNCOMPRESSED
Overall scaling of the MP2 energy         ...   2.700e-01 Eh
Calculating two index integrals           ... done (    0.012 sec)
Cholesky decomposition of the V-matrix    ... done
Cholesky decomposition of V**-1           ... done (    0.034 sec)

-----------------
RI-TRANSFORMATION (AUX index driven)
-----------------

Dimension of the orbital-basis         ... 259
Dimension of the aux-basis             ... 493
Transformation of internal MOs         ...    0-  45
Transformation of internal/external MOs...    0-  45 to   46- 258
Number Format for Storage              ... Double (8 Byte)
Integral mode                          ... Direct

First Phase: integral generation and transformation of MO indices
  Aux angular momentum 0               ... done (    0.411 sec)
  Aux angular momentum 1               ... done (    0.349 sec)
  Aux angular momentum 2               ... done (    0.450 sec)
  Aux angular momentum 3               ... done (    0.241 sec)
  Aux angular momentum 4               ... done (    0.213 sec)
Closing buffer VIJ ( 0.00 GB; CompressionRatio= 1.95)
Closing buffer VIA ( 0.04 GB; CompressionRatio= 1.00)
  Phase 1 completed in     1.768 sec
Second Phase: sorting and transformation of aux index

IJ-Transformation
Memory available                       ... 990 MB 
Max. # MO pairs treated in a batch     ... 46    
# of internal orbitals                 ... 46
# batches for internal orbitals        ... 1
Closing buffer IJV ( 0.00 GB; CompressionRatio= 1.00)
(ij|v) transformation done in     0.115 sec

IA-Transformation
Memory available                       ... 990 MB 
Max. # MO pairs treated in a batch     ... 46    
# of internal orbitals                 ... 46
# batches for internal orbitals        ... 1
Closing buffer IAV ( 0.04 GB; CompressionRatio= 1.00)
(ia|v) transformation done in     0.404 sec

  Phase 2 completed in     0.615 sec
RI-Integral transformation completed in     2.383 sec
Opening buffers                              ... done

Starting loop over batches of integrals:

Operator 0  - window                       ... (  0- 45)x( 46-258)
Operator 0  - Memory available             ...  1000 MB
Operator 0  - Memory needed per MO         ...   1.6 MB
Operator 0  - Number of orbitals per batch ... 46
Operator 0  - Number of batches            ... 1

OPERATOR  0   PASS   0:  MOs     0 ...   45
  Reading integrals       ... ok
  Internal MO   2
  Internal MO   5
  Internal MO   8
  Internal MO  11
  Internal MO  14
  Internal MO  17
  Internal MO  20
  Internal MO  23
  Internal MO  26
  Internal MO  29
  Internal MO  32
  Internal MO  35
  Internal MO  38
  Internal MO  41
  Internal MO  44
Closing buffer GIPV ( 0.04 GB; CompressionRatio= 1.00)
Time spent in pair loops =    59.662 sec

-----------------------------------------------
 RI-MP2 CORRELATION ENERGY:     -0.575004891 Eh
-----------------------------------------------


---------------------
MP2 DENSITY FORMATION
---------------------

Completing the external part of the density      ... done
Storing the unrelaxed density                    ... done

Calculating the xc-kernel                        ... done
Calculating G(D)                                 ... done
Completing the Lagrangian                        ... done
Solving the Z-vector equations                   ... 

------------------------------------------------------------------------------
                           ORCA CP-SCF CALCULATION
------------------------------------------------------------------------------

Input orbitals are from        ... PbMACl3_mp2_md2_2.orca.gbw
Input Perturbation             ... PbMACl3_mp2_md2_2.orca.pin.tmp
Wavefunction output            ... PbMACl3_mp2_md2_2.orca.pout.tmp
Perturbation mode              ... Real perturbation
Solver                         ... DIIS
   MaxDIIS                     ... 20
   Levelshift                  ...    3.000e-01 Eh
Max. number of iterations      ... 128
Convergence tolerance          ... 1.000e-08
Integral handling              ... Direct
COSX GridX                     ... 1
Number of perturbations        ... 1
Number of operators            ... 1
Orbital ranges used for CP-SCF:
 Operator 0:  Orbitals   0... 45  to  46...258
DFT calculation                         ... on
Exchange functional (SCF)               ... B88
Exchange functional (CP-SCF)            ... B88
   X-Alpha parameter    XAlpha (SCF)    ...  0.666667
   X-Alpha parameter    XAlpha (CP-SCF) ...  0.666667
   Becke's b parameter  XBeta (SCF)     ...  0.004200
   Becke's b parameter  XBeta (CP-SCF)  ...  0.004200
Correlation functional (SCF)            ... LYP
Correlation functional (CP-SCF)         ... LYP
 LDA part of GGA corr.  LDAOpt (SCF)    ... VWN-3
 LDA part of GGA corr.  LDAOpt (CP-SCF) ... VWN-3
Hybrid DFT                              ... on
   Exchange mixing (SCF)                ...  0.530
   Exchange mixing (CP-SCF)             ...  0.530
   GGA exch. scaling(SCF)               ...  0.470
   GGA exch. scaling (CP-SCF)           ...  0.470
   GGA corr. scaling (SCF)              ...  0.730
   GGA corr. scaling (CP-SCF)           ...  0.730
The RIJCOSX approximation is active
Variables per vector in CP-SCF ... 9798
Number of vectors sought       ... 1
Calculating the xc-kernel      ... done

Solving the CP-SCF equations by a DIIS algorithm

-----------------
CP-SCF ITERATIONS
-----------------
  Iteration   0: MaxR=  0.090514918
  Iteration   1: MaxR=  0.040276825
  Iteration   2: MaxR=  0.010080177
  Iteration   3: MaxR=  0.005346731
  Iteration   4: MaxR=  0.003215746
  Iteration   5: MaxR=  0.001660996
  Iteration   6: MaxR=  0.000798506
  Iteration   7: MaxR=  0.000285820
  Iteration   8: MaxR=  0.000151090
  Iteration   9: MaxR=  0.000065728
  Iteration  10: MaxR=  0.000030802
  Iteration  11: MaxR=  0.000015828
  Iteration  12: MaxR=  0.000008708
  Iteration  13: MaxR=  0.000004425
  Iteration  14: MaxR=  0.000001648
  Iteration  15: MaxR=  0.000000726
  Iteration  16: MaxR=  0.000000340
  Iteration  17: MaxR=  0.000000173
  Iteration  18: MaxR=  0.000000080
  Iteration  19: MaxR=  0.000000036
  Iteration  20: MaxR=  0.000000018
  Iteration  21: MaxR=  0.000000008
                              *** THE CP-SCF HAS CONVERGED *** 
done
Finalizing the relaxed density                   ... done
Transforming P to the AO basis                   ... done
Storing the relaxed density                      ... done

------------------------------------
ENERGY WEIGHTED DENSITY FINALIZATION
------------------------------------

Gathering the parts of the W-matrix              ... done
Forming the Z-density                            ... done
Transforming Z to the AO basis                   ... done
Calculating G(Z)                                 ... done
Finalizing the W-matrix                          ... done
Transforming W to the AO basis and storing       ... done
Entering the RIJONX and RIJCOSX sections
Starting the three-index derivative integrals:
Operator 0  - Memory available             ...  1000 MB
Operator 0  - Memory needed per MO         ...   1.0 MB
Operator 0  - Number of orbitals per batch ... 46
Operator 0  - Number of batches            ... 1

OPERATOR  0   PASS   0:  MOs     0 ...   45

----------------------------------
MP2 DERIVATIVE INTEGRAL GENERATION
----------------------------------


Input Correlated Electron Density   ... PbMACl3_mp2_md2_2.orca.pmp2re
Input Energy Weighted Density       ... PbMACl3_mp2_md2_2.orca.wmp2.tmp
Input SCF Electron Density          ... PbMACl3_mp2_md2_2.orca.scfp.tmp

One-Electron Terms    ...
  ECP gradient                                           ... One-Electron Terms done

-----------------------------------------------------------
MP2 COSX Grid Generation
-----------------------------------------------------------

General Integration Accuracy     IntAcc      ...  4.340
Radial Grid Type                 RadialGrid  ... Gauss-Chebyshev
Angular Grid (max. acc.)         AngularGrid ... Lebedev-302
Angular grid pruning method      GridPruning ... 3 (G Style)
Weight generation scheme         WeightScheme... Becke
Basis function cutoff            BFCut       ...    1.0000e-11
Integration weight cutoff        WCut        ...    1.0000e-14
Grids for H and He will be reduced by one unit

# of grid points (after initial pruning)     ...  57718 (   0.0 sec)
# of grid points (after weights+screening)   ...  54900 (   0.1 sec)
nearest neighbour list constructed           ...    0.0 sec
Grid point re-assignment to atoms done       ...    0.0 sec
Grid point division into batches done        ...    0.2 sec
Reduced shell lists constructed in    1.4 sec

Total number of grid points                  ...    54900
Total number of batches                      ...      862
Average number of points per batch           ...       63
Average number of grid points per atom       ...     4575
Average number of shells per batch           ...    50.72 (50.22%)
Average number of basis functions per batch  ...   130.65 (50.45%)
Average number of large shells per batch     ...    37.72 (74.38%)
Average number of large basis fcns per batch ...    96.14 (73.58%)
Maximum spatial batch extension              ...  31.51, 35.78, 34.50 au
Average spatial batch extension              ...   3.23,  3.18,  3.16 au

Overlap Fitting                  UseSFitting ... on
Two electron COSX terms .... 
Integration Timings:
Total Time                  =    71.3 sec
Basis fcn evaluation        =     0.6 sec
Density evaluation          =     1.1 sec
Integral evaluation         =    67.6 sec
K(P) evaluation             =     0.8 sec
                          .... COSX two electron terms done
COSX two-electron contribution to the gradient
     0:    -0.014315    -0.038665    -0.016921
     1:     0.042207     0.121878     0.043690
     2:     0.098246    -0.073708     0.105315
     3:    -0.105627     0.100571     0.095659
     4:     0.101987     0.102030    -0.098284
     5:    -0.122067    -0.127731     0.101169
     6:     0.107742    -0.129355    -0.116371
     7:    -0.088929     0.024766    -0.094357
     8:     0.006843    -0.022583     0.005823
     9:     0.054700     0.011693    -0.066592
    10:    -0.016516     0.025408    -0.017338
    11:    -0.063413     0.005277     0.057566
Exchange-correlation gradient    ... done
Dispersion correction            ... 
Entering the calculation of the dispersion correction...

Checking the input atom types...

Done
done

                *********************************************
                * UNRELAXED MP2 DENSITY POPULATION ANALYSIS *
                *********************************************

------------------------------------------------------------------------------
                           ORCA POPULATION ANALYSIS
------------------------------------------------------------------------------
Input electron density              ... PbMACl3_mp2_md2_2.orca.pmp2ur
BaseName (.gbw .S,...)              ... PbMACl3_mp2_md2_2.orca

                    ********************************
                    * MULLIKEN POPULATION ANALYSIS *
                    ********************************

-----------------------
MULLIKEN ATOMIC CHARGES
-----------------------
   0 C :   -0.230235
   1 N :   -0.305563
   2 H :    0.134836
   3 H :    0.176719
   4 H :    0.176790
   5 H :    0.268267
   6 H :    0.271845
   7 H :    0.255526
   8 Pb:    0.919810
   9 Cl:   -0.457258
  10 Cl:   -0.749660
  11 Cl:   -0.461077
Sum of atomic charges:   -0.0000000

--------------------------------
MULLIKEN REDUCED ORBITAL CHARGES
--------------------------------
  0 C s       :     3.252652  s :     3.252652
      pz      :     0.981740  p :     2.895316
      px      :     1.001865
      py      :     0.911711
      dz2     :     0.007560  d :     0.075052
      dxz     :     0.019401
      dyz     :     0.020115
      dx2y2   :     0.007887
      dxy     :     0.020088
      f0      :     0.000516  f :     0.007216
      f+1     :     0.000665
      f-1     :     0.000846
      f+2     :     0.000929
      f-2     :     0.002825
      f+3     :     0.000699
      f-3     :     0.000737
  1 N s       :     3.431125  s :     3.431125
      pz      :     1.273477  p :     3.809698
      px      :     1.270025
      py      :     1.266196
      dz2     :     0.008017  d :     0.061443
      dxz     :     0.015183
      dyz     :     0.014534
      dx2y2   :     0.008859
      dxy     :     0.014851
      f0      :     0.000275  f :     0.003296
      f+1     :     0.000329
      f-1     :     0.000363
      f+2     :     0.000388
      f-2     :     0.001292
      f+3     :     0.000316
      f-3     :     0.000332
  2 H s       :     0.842885  s :     0.842885
      pz      :     0.008516  p :     0.022279
      px      :     0.008002
      py      :     0.005761
  3 H s       :     0.799949  s :     0.799949
      pz      :     0.006964  p :     0.023332
      px      :     0.008018
      py      :     0.008350
  4 H s       :     0.799865  s :     0.799865
      pz      :     0.007440  p :     0.023345
      px      :     0.007452
      py      :     0.008452
  5 H s       :     0.698193  s :     0.698193
      pz      :     0.009745  p :     0.033539
      px      :     0.012035
      py      :     0.011760
  6 H s       :     0.694383  s :     0.694383
      pz      :     0.011703  p :     0.033771
      px      :     0.010094
      py      :     0.011974
  7 H s       :     0.695340  s :     0.695340
      pz      :     0.017185  p :     0.049134
      px      :     0.016083
      py      :     0.015866
  8 Pbs       :     3.941935  s :     3.941935
      pz      :     2.325089  p :     6.904782
      px      :     2.318448
      py      :     2.261244
      dz2     :     2.038648  d :    10.161920
      dxz     :     2.059406
      dyz     :     2.021993
      dx2y2   :     2.022095
      dxy     :     2.019779
      f0      :     0.010109  f :     0.071553
      f+1     :     0.013952
      f-1     :     0.007700
      f+2     :     0.011967
      f-2     :     0.012281
      f+3     :     0.007709
      f-3     :     0.007835
  9 Cls       :     5.954136  s :     5.954136
      pz      :     3.780713  p :    11.444264
      px      :     3.785395
      py      :     3.878155
      dz2     :     0.011940  d :     0.055497
      dxz     :     0.014584
      dyz     :     0.010571
      dx2y2   :     0.009373
      dxy     :     0.009029
      f0      :     0.000477  f :     0.003361
      f+1     :     0.000619
      f-1     :     0.000445
      f+2     :     0.000520
      f-2     :     0.000497
      f+3     :     0.000401
      f-3     :     0.000403
 10 Cls       :     5.959066  s :     5.959066
      pz      :     3.947751  p :    11.742480
      px      :     3.949810
      py      :     3.844919
      dz2     :     0.008565  d :     0.045185
      dxz     :     0.008339
      dyz     :     0.009513
      dx2y2   :     0.009384
      dxy     :     0.009384
      f0      :     0.000420  f :     0.002930
      f+1     :     0.000380
      f-1     :     0.000398
      f+2     :     0.000426
      f-2     :     0.000448
      f+3     :     0.000458
      f-3     :     0.000401
 11 Cls       :     5.953931  s :     5.953931
      pz      :     3.777970  p :    11.448446
      px      :     3.793017
      py      :     3.877460
      dz2     :     0.010359  d :     0.055337
      dxz     :     0.014927
      dyz     :     0.009012
      dx2y2   :     0.010941
      dxy     :     0.010098
      f0      :     0.000453  f :     0.003363
      f+1     :     0.000577
      f-1     :     0.000391
      f+2     :     0.000581
      f-2     :     0.000484
      f+3     :     0.000441
      f-3     :     0.000436


                     *******************************
                     * LOEWDIN POPULATION ANALYSIS *
                     *******************************

----------------------
LOEWDIN ATOMIC CHARGES
----------------------
   0 C :   -0.280992
   1 N :    0.092753
   2 H :    0.115124
   3 H :    0.134752
   4 H :    0.134695
   5 H :    0.194485
   6 H :    0.193798
   7 H :    0.113849
   8 Pb:    0.382916
   9 Cl:   -0.195154
  10 Cl:   -0.688486
  11 Cl:   -0.197740

-------------------------------
LOEWDIN REDUCED ORBITAL CHARGES
-------------------------------
  0 C s       :     2.857941  s :     2.857941
      pz      :     1.034773  p :     3.080720
      px      :     1.047202
      py      :     0.998745
      dz2     :     0.027655  d :     0.303682
      dxz     :     0.080790
      dyz     :     0.082200
      dx2y2   :     0.032231
      dxy     :     0.080805
      f0      :     0.005466  f :     0.038649
      f+1     :     0.003991
      f-1     :     0.005781
      f+2     :     0.004377
      f-2     :     0.007873
      f+3     :     0.005208
      f-3     :     0.005954
  1 N s       :     3.007382  s :     3.007382
      pz      :     1.242513  p :     3.712503
      px      :     1.238451
      py      :     1.231540
      dz2     :     0.019960  d :     0.176446
      dxz     :     0.042946
      dyz     :     0.045402
      dx2y2   :     0.021509
      dxy     :     0.046630
      f0      :     0.001717  f :     0.010916
      f+1     :     0.001293
      f-1     :     0.001567
      f+2     :     0.001221
      f-2     :     0.001987
      f+3     :     0.001461
      f-3     :     0.001671
  2 H s       :     0.820922  s :     0.820922
      pz      :     0.023584  p :     0.063954
      px      :     0.022443
      py      :     0.017927
  3 H s       :     0.799820  s :     0.799820
      pz      :     0.019306  p :     0.065428
      px      :     0.023833
      py      :     0.022289
  4 H s       :     0.799885  s :     0.799885
      pz      :     0.022147  p :     0.065420
      px      :     0.020735
      py      :     0.022538
  5 H s       :     0.707511  s :     0.707511
      pz      :     0.031418  p :     0.098004
      px      :     0.033345
      py      :     0.033241
  6 H s       :     0.706799  s :     0.706799
      pz      :     0.032470  p :     0.099403
      px      :     0.032981
      py      :     0.033953
  7 H s       :     0.721041  s :     0.721041
      pz      :     0.058534  p :     0.165110
      px      :     0.054330
      py      :     0.052246
  8 Pbs       :     3.823723  s :     3.823723
      pz      :     2.433113  p :     7.161457
      px      :     2.420060
      py      :     2.308284
      dz2     :     2.096353  d :    10.501202
      dxz     :     2.223777
      dyz     :     2.057086
      dx2y2   :     2.073209
      dxy     :     2.050777
      f0      :     0.016388  f :     0.130702
      f+1     :     0.031090
      f-1     :     0.011423
      f+2     :     0.026063
      f-2     :     0.022776
      f+3     :     0.011418
      f-3     :     0.011545
  9 Cls       :     5.777709  s :     5.777709
      pz      :     3.755926  p :    11.343671
      px      :     3.752469
      py      :     3.835275
      dz2     :     0.014003  d :     0.069534
      dxz     :     0.023947
      dyz     :     0.011924
      dx2y2   :     0.009896
      dxy     :     0.009763
      f0      :     0.000455  f :     0.004240
      f+1     :     0.001108
      f-1     :     0.000520
      f+2     :     0.000682
      f-2     :     0.000648
      f+3     :     0.000399
      f-3     :     0.000428
 10 Cls       :     5.924069  s :     5.924069
      pz      :     3.935585  p :    11.713244
      px      :     3.938912
      py      :     3.838747
      dz2     :     0.008808  d :     0.048005
      dxz     :     0.008482
      dyz     :     0.010420
      dx2y2   :     0.010066
      dxy     :     0.010230
      f0      :     0.000462  f :     0.003168
      f+1     :     0.000382
      f-1     :     0.000400
      f+2     :     0.000471
      f-2     :     0.000511
      f+3     :     0.000537
      f-3     :     0.000406
 11 Cls       :     5.777482  s :     5.777482
      pz      :     3.746369  p :    11.346625
      px      :     3.766346
      py      :     3.833910
      dz2     :     0.009730  d :     0.069393
      dxz     :     0.025644
      dyz     :     0.009248
      dx2y2   :     0.014358
      dxy     :     0.010412
      f0      :     0.000539  f :     0.004240
      f+1     :     0.000756
      f-1     :     0.000395
      f+2     :     0.001008
      f-2     :     0.000550
      f+3     :     0.000523
      f-3     :     0.000470


                      *****************************
                      * MAYER POPULATION ANALYSIS *
                      *****************************

  NA   - Mulliken gross atomic population
  ZA   - Total nuclear charge
  QA   - Mulliken gross atomic charge
  VA   - Mayer's total valence
  BVA  - Mayer's bonded valence
  FA   - Mayer's free valence

  ATOM       NA         ZA         QA         VA         BVA        FA
  0 C      6.2302     6.0000    -0.2302     3.8422     3.7289     0.1133
  1 N      7.3056     7.0000    -0.3056     3.3636     3.2214     0.1422
  2 H      0.8652     1.0000     0.1348     0.9635     0.9441     0.0194
  3 H      0.8233     1.0000     0.1767     0.9842     0.9661     0.0181
  4 H      0.8232     1.0000     0.1768     0.9835     0.9654     0.0181
  5 H      0.7317     1.0000     0.2683     0.9405     0.9198     0.0208
  6 H      0.7282     1.0000     0.2718     0.9405     0.9200     0.0205
  7 H      0.7445     1.0000     0.2555     1.0863     1.0639     0.0224
  8 Pb    21.0802    22.0000     0.9198     2.1106     1.7314     0.3792
  9 Cl    17.4573    17.0000    -0.4573     1.1655     0.8915     0.2740
 10 Cl    17.7497    17.0000    -0.7497     0.6830     0.4336     0.2494
 11 Cl    17.4611    17.0000    -0.4611     1.1595     0.8857     0.2738

  Mayer bond orders larger than 0.1
B(  0-C ,  1-N ) :   0.8639 B(  0-C ,  2-H ) :   0.9467 B(  0-C ,  3-H ) :   0.9474 
B(  0-C ,  4-H ) :   0.9478 B(  1-N ,  5-H ) :   0.8786 B(  1-N ,  6-H ) :   0.8766 
B(  1-N ,  7-H ) :   0.6755 B(  7-H , 10-Cl) :   0.3886 B(  8-Pb,  9-Cl) :   0.8511 
B(  8-Pb, 11-Cl) :   0.8478 


                *******************************************
                * RELAXED MP2 DENSITY POPULATION ANALYSIS *
                *******************************************

------------------------------------------------------------------------------
                           ORCA POPULATION ANALYSIS
------------------------------------------------------------------------------
Input electron density              ... PbMACl3_mp2_md2_2.orca.pmp2re
BaseName (.gbw .S,...)              ... PbMACl3_mp2_md2_2.orca

                    ********************************
                    * MULLIKEN POPULATION ANALYSIS *
                    ********************************

-----------------------
MULLIKEN ATOMIC CHARGES
-----------------------
   0 C :   -0.247623
   1 N :   -0.300850
   2 H :    0.138117
   3 H :    0.179004
   4 H :    0.179048
   5 H :    0.266340
   6 H :    0.269489
   7 H :    0.247186
   8 Pb:    0.850105
   9 Cl:   -0.422585
  10 Cl:   -0.731699
  11 Cl:   -0.426533
Sum of atomic charges:   -0.0000000

--------------------------------
MULLIKEN REDUCED ORBITAL CHARGES
--------------------------------
  0 C s       :     3.254531  s :     3.254531
      pz      :     0.988611  p :     2.915204
      px      :     1.008380
      py      :     0.918213
      dz2     :     0.007712  d :     0.070839
      dxz     :     0.017746
      dyz     :     0.018677
      dx2y2   :     0.008048
      dxy     :     0.018657
      f0      :     0.000495  f :     0.007049
      f+1     :     0.000656
      f-1     :     0.000833
      f+2     :     0.000919
      f-2     :     0.002744
      f+3     :     0.000681
      f-3     :     0.000721
  1 N s       :     3.430911  s :     3.430911
      pz      :     1.272666  p :     3.806794
      px      :     1.269518
      py      :     1.264611
      dz2     :     0.008157  d :     0.059902
      dxz     :     0.014596
      dyz     :     0.013934
      dx2y2   :     0.008974
      dxy     :     0.014242
      f0      :     0.000271  f :     0.003242
      f+1     :     0.000328
      f-1     :     0.000364
      f+2     :     0.000388
      f-2     :     0.001248
      f+3     :     0.000312
      f-3     :     0.000332
  2 H s       :     0.839939  s :     0.839939
      pz      :     0.008338  p :     0.021944
      px      :     0.007857
      py      :     0.005749
  3 H s       :     0.798072  s :     0.798072
      pz      :     0.006860  p :     0.022924
      px      :     0.007878
      py      :     0.008185
  4 H s       :     0.798016  s :     0.798016
      pz      :     0.007332  p :     0.022936
      px      :     0.007322
      py      :     0.008282
  5 H s       :     0.700491  s :     0.700491
      pz      :     0.009684  p :     0.033168
      px      :     0.011825
      py      :     0.011660
  6 H s       :     0.697115  s :     0.697115
      pz      :     0.011508  p :     0.033396
      px      :     0.010024
      py      :     0.011864
  7 H s       :     0.704174  s :     0.704174
      pz      :     0.016965  p :     0.048640
      px      :     0.015896
      py      :     0.015779
  8 Pbs       :     3.946629  s :     3.946629
      pz      :     2.349107  p :     6.979663
      px      :     2.342545
      py      :     2.288012
      dz2     :     2.037964  d :    10.154123
      dxz     :     2.054258
      dyz     :     2.021469
      dx2y2   :     2.021084
      dxy     :     2.019349
      f0      :     0.009826  f :     0.069480
      f+1     :     0.013418
      f-1     :     0.007563
      f+2     :     0.011565
      f-2     :     0.011838
      f+3     :     0.007577
      f-3     :     0.007692
  9 Cls       :     5.955726  s :     5.955726
      pz      :     3.770261  p :    11.408309
      px      :     3.772521
      py      :     3.865527
      dz2     :     0.011869  d :     0.055184
      dxz     :     0.014436
      dyz     :     0.010569
      dx2y2   :     0.009285
      dxy     :     0.009025
      f0      :     0.000479  f :     0.003366
      f+1     :     0.000617
      f-1     :     0.000446
      f+2     :     0.000519
      f-2     :     0.000499
      f+3     :     0.000402
      f-3     :     0.000404
 10 Cls       :     5.959649  s :     5.959649
      pz      :     3.943965  p :    11.723865
      px      :     3.946190
      py      :     3.833709
      dz2     :     0.008554  d :     0.045238
      dxz     :     0.008353
      dyz     :     0.009549
      dx2y2   :     0.009362
      dxy     :     0.009419
      f0      :     0.000422  f :     0.002946
      f+1     :     0.000381
      f-1     :     0.000399
      f+2     :     0.000429
      f-2     :     0.000451
      f+3     :     0.000462
      f-3     :     0.000403
 11 Cls       :     5.955510  s :     5.955510
      pz      :     3.765523  p :    11.412622
      px      :     3.782643
      py      :     3.864457
      dz2     :     0.010249  d :     0.055033
      dxz     :     0.014816
      dyz     :     0.008996
      dx2y2   :     0.010904
      dxy     :     0.010068
      f0      :     0.000454  f :     0.003368
      f+1     :     0.000577
      f-1     :     0.000392
      f+2     :     0.000580
      f-2     :     0.000487
      f+3     :     0.000441
      f-3     :     0.000437


                     *******************************
                     * LOEWDIN POPULATION ANALYSIS *
                     *******************************

----------------------
LOEWDIN ATOMIC CHARGES
----------------------
   0 C :   -0.291403
   1 N :    0.089157
   2 H :    0.117017
   3 H :    0.136178
   4 H :    0.136115
   5 H :    0.194648
   6 H :    0.193750
   7 H :    0.110650
   8 Pb:    0.328454
   9 Cl:   -0.168543
  10 Cl:   -0.674781
  11 Cl:   -0.171241

-------------------------------
LOEWDIN REDUCED ORBITAL CHARGES
-------------------------------
  0 C s       :     2.859527  s :     2.859527
      pz      :     1.039395  p :     3.094356
      px      :     1.051650
      py      :     1.003311
      dz2     :     0.027829  d :     0.299136
      dxz     :     0.079230
      dyz     :     0.080513
      dx2y2   :     0.032379
      dxy     :     0.079185
      f0      :     0.005436  f :     0.038385
      f+1     :     0.003971
      f-1     :     0.005771
      f+2     :     0.004341
      f-2     :     0.007754
      f+3     :     0.005161
      f-3     :     0.005950
  1 N s       :     3.009580  s :     3.009580
      pz      :     1.243312  p :     3.714128
      px      :     1.239565
      py      :     1.231252
      dz2     :     0.020196  d :     0.176150
      dxz     :     0.042726
      dyz     :     0.045168
      dx2y2   :     0.021726
      dxy     :     0.046334
      f0      :     0.001731  f :     0.010986
      f+1     :     0.001299
      f-1     :     0.001578
      f+2     :     0.001222
      f-2     :     0.002005
      f+3     :     0.001467
      f-3     :     0.001683
  2 H s       :     0.818845  s :     0.818845
      pz      :     0.023587  p :     0.064138
      px      :     0.022467
      py      :     0.018084
  3 H s       :     0.798374  s :     0.798374
      pz      :     0.019329  p :     0.065449
      px      :     0.023852
      py      :     0.022267
  4 H s       :     0.798448  s :     0.798448
      pz      :     0.022193  p :     0.065437
      px      :     0.020733
      py      :     0.022511
  5 H s       :     0.707416  s :     0.707416
      pz      :     0.031456  p :     0.097936
      px      :     0.033155
      py      :     0.033325
  6 H s       :     0.706964  s :     0.706964
      pz      :     0.032278  p :     0.099285
      px      :     0.033000
      py      :     0.034008
  7 H s       :     0.724216  s :     0.724216
      pz      :     0.058560  p :     0.165133
      px      :     0.054360
      py      :     0.052213
  8 Pbs       :     3.828634  s :     3.828634
      pz      :     2.452357  p :     7.224569
      px      :     2.439622
      py      :     2.332590
      dz2     :     2.095061  d :    10.491332
      dxz     :     2.218082
      dyz     :     2.056262
      dx2y2   :     2.071886
      dxy     :     2.050041
      f0      :     0.015856  f :     0.127011
      f+1     :     0.030070
      f-1     :     0.011220
      f+2     :     0.025302
      f-2     :     0.022066
      f+3     :     0.011182
      f-3     :     0.011315
  9 Cls       :     5.781102  s :     5.781102
      pz      :     3.747617  p :    11.313056
      px      :     3.741382
      py      :     3.824057
      dz2     :     0.014113  d :     0.070096
      dxz     :     0.024227
      dyz     :     0.012027
      dx2y2   :     0.009903
      dxy     :     0.009826
      f0      :     0.000461  f :     0.004289
      f+1     :     0.001124
      f-1     :     0.000523
      f+2     :     0.000693
      f-2     :     0.000656
      f+3     :     0.000401
      f-3     :     0.000430
 10 Cls       :     5.925200  s :     5.925200
      pz      :     3.932671  p :    11.698214
      px      :     3.936141
      py      :     3.829402
      dz2     :     0.008813  d :     0.048180
      dxz     :     0.008501
      dyz     :     0.010487
      dx2y2   :     0.010087
      dxy     :     0.010292
      f0      :     0.000465  f :     0.003187
      f+1     :     0.000382
      f-1     :     0.000402
      f+2     :     0.000474
      f-2     :     0.000515
      f+3     :     0.000542
      f-3     :     0.000408
 11 Cls       :     5.780856  s :     5.780856
      pz      :     3.735764  p :    11.316138
      px      :     3.758062
      py      :     3.822313
      dz2     :     0.009736  d :     0.069958
      dxz     :     0.025981
      dyz     :     0.009291
      dx2y2   :     0.014485
      dxy     :     0.010465
      f0      :     0.000543  f :     0.004289
      f+1     :     0.000770
      f-1     :     0.000397
      f+2     :     0.001022
      f-2     :     0.000556
      f+3     :     0.000527
      f-3     :     0.000474


                      *****************************
                      * MAYER POPULATION ANALYSIS *
                      *****************************

  NA   - Mulliken gross atomic population
  ZA   - Total nuclear charge
  QA   - Mulliken gross atomic charge
  VA   - Mayer's total valence
  BVA  - Mayer's bonded valence
  FA   - Mayer's free valence

  ATOM       NA         ZA         QA         VA         BVA        FA
  0 C      6.2476     6.0000    -0.2476     3.8420     3.7290     0.1131
  1 N      7.3009     7.0000    -0.3009     3.3683     3.2266     0.1418
  2 H      0.8619     1.0000     0.1381     0.9633     0.9441     0.0193
  3 H      0.8210     1.0000     0.1790     0.9852     0.9672     0.0181
  4 H      0.8210     1.0000     0.1790     0.9845     0.9665     0.0180
  5 H      0.7337     1.0000     0.2663     0.9441     0.9236     0.0205
  6 H      0.7305     1.0000     0.2695     0.9441     0.9239     0.0203
  7 H      0.7528     1.0000     0.2472     1.0923     1.0701     0.0222
  8 Pb    21.1499    22.0000     0.8501     2.2129     1.8411     0.3717
  9 Cl    17.4226    17.0000    -0.4226     1.2243     0.9537     0.2707
 10 Cl    17.7317    17.0000    -0.7317     0.7137     0.4657     0.2480
 11 Cl    17.4265    17.0000    -0.4265     1.2182     0.9476     0.2705

  Mayer bond orders larger than 0.1
B(  0-C ,  1-N ) :   0.8730 B(  0-C ,  2-H ) :   0.9432 B(  0-C ,  3-H ) :   0.9446 
B(  0-C ,  4-H ) :   0.9450 B(  1-N ,  5-H ) :   0.8762 B(  1-N ,  6-H ) :   0.8746 
B(  1-N ,  7-H ) :   0.6705 B(  7-H , 10-Cl) :   0.3994 B(  8-Pb,  9-Cl) :   0.9025 
B(  8-Pb, 11-Cl) :   0.8993 


-------
TIMINGS
-------

Total time                :  572.765 sec
Integral trafo            :    2.394 sec (  0.4%)
I/O of integrals          :    0.169 sec (  0.0%)
K(i,j) Operators          :    7.105 sec (  1.2%)
T(i,j) pair energies      :    1.529 sec (  0.3%)
V-calculation             :    0.012 sec (  0.0%)
V**(-1/2)                 :    0.034 sec (  0.0%)
Gamma(ia|P)               :    5.957 sec (  1.0%)
Gamma-Trafo               :    0.810 sec (  0.1%)
D(virtual)                :    2.415 sec (  0.4%)
D(internal)               :    6.519 sec (  1.1%)
W(virtual)                :    5.125 sec (  0.9%)
W(internal)               :   23.216 sec (  4.1%)
L(virtual)                :    5.590 sec (  1.0%)
L(internal)               :    0.601 sec (  0.1%)
G(D)                      :   11.925 sec (  2.1%)
G(Z)                      :   11.717 sec (  2.0%)
Z-Vector Solution         :  397.096 sec ( 69.3%)
Z-Vector Solution         :  397.096 sec ( 69.3%)
3-Index Derivative 
+ Separable RIJ part      :    3.487 sec (  0.6%)
2-Index Derivative 
+ Separable RIJ part      :    0.029 sec (  0.0%)
Separable Gradient (COSX) :   84.349 sec ( 14.7%)


---------------------------------------
MP2 TOTAL ENERGY:    -1669.514815621 Eh
---------------------------------------

The final MP2 gradient
  0:  -0.00356707  -0.00186987  -0.00410586
  1:  -0.00273981   0.05524061  -0.00657123
  2:   0.00232545  -0.00083560   0.00268906
  3:  -0.00126429   0.00294845   0.00670728
  4:   0.00675323   0.00322308  -0.00061991
  5:  -0.01343204  -0.01719649   0.00167018
  6:   0.00065303  -0.01563956  -0.01149187
  7:   0.01392531  -0.03911349   0.01485859
  8:  -0.00093992   0.01266084   0.00007496
  9:   0.00480068  -0.00592521  -0.00396044
 10:  -0.00330288   0.01237574  -0.00388803
 11:  -0.00236622  -0.00632291   0.00406816

-----------------------------------
NORM OF THE MP2 GRADIENT:  0.080853
-----------------------------------

Entering the calculation of the dispersion correction...

Checking the input atom types...

Done


-------------------------------------------------------------------------------
                          DFT DISPERSION CORRECTION                            
                                                                               
                                DFTD3 V2.1  Rev 6                               
                          USING Becke-Johnson damping                          
-------------------------------------------------------------------------------
The B2PLYP functional is recognized
Active option DFTDOPT                   ...         4   

molecular C6(AA) [au] = 4941.970602 


            DFT-D V3
 parameters
 s6 scaling factor         :     0.6400 
 a1 scaling factor         :     0.3065 
 s8 scaling factor         :     0.9147 
 a2 scaling factor         :     5.0570 
 ad hoc parameters k1-k3   :    16.0000     1.3333    -4.0000 

 Edisp/kcal,au: -6.224228129248  -0.009918937837 
 E6   /kcal   :  -2.963868009 
 E8   /kcal   :  -3.260360120 
 % E8         :  52.381758061 

-------------------------   ----------------
Dispersion correction           -0.009918938
-------------------------   ----------------


-------------------------   --------------------
FINAL SINGLE POINT ENERGY     -1669.524734558693
-------------------------   --------------------


                            ***************************************
                            *     ORCA property calculations      *
                            ***************************************


  WARNING: The energy has been calculated at the MP2 level but the densities
           used in the property calculations are still SCF densities
           MP2 response densities have not been calculated 
           use %mp2 Density relaxed end
           or  %mp2 Density unrelaxed end

                                    ---------------------
                                    Active property flags
                                    ---------------------
   (+) Dipole Moment


------------------------------------------------------------------------------
                       ORCA ELECTRIC PROPERTIES CALCULATION
------------------------------------------------------------------------------

Dipole Moment Calculation                       ... on
Quadrupole Moment Calculation                   ... off
Polarizability Calculation                      ... off
GBWName                                         ... PbMACl3_mp2_md2_2.orca.gbw
Electron density file                           ... PbMACl3_mp2_md2_2.orca.scfp.tmp

-------------
DIPOLE MOMENT
-------------
                                X             Y             Z
Electronic contribution:    -33.00887    -161.54636     -29.21770
Nuclear contribution   :     35.22947     158.25511      31.47319
                        -----------------------------------------
Total Dipole Moment    :      2.22060      -3.29125       2.25548
                        -----------------------------------------
Magnitude (a.u.)       :      4.56625
Magnitude (Debye)      :     11.60648


                         *** MP2 UNRELAXED DENSITY ***

------------------------------------------------------------------------------
                       ORCA ELECTRIC PROPERTIES CALCULATION
------------------------------------------------------------------------------

Dipole Moment Calculation                       ... on
Quadrupole Moment Calculation                   ... off
Polarizability Calculation                      ... off
GBWName                                         ... PbMACl3_mp2_md2_2.orca.gbw
Electron density file                           ... PbMACl3_mp2_md2_2.orca.pmp2ur

-------------
DIPOLE MOMENT
-------------
                                X             Y             Z
Electronic contribution:    -33.02087    -161.52456     -29.22956
Nuclear contribution   :     35.22947     158.25511      31.47319
                        -----------------------------------------
Total Dipole Moment    :      2.20860      -3.26945       2.24362
                        -----------------------------------------
Magnitude (a.u.)       :      4.53884
Magnitude (Debye)      :     11.53682


                           *** MP2 RELAXED DENSITY ***

------------------------------------------------------------------------------
                       ORCA ELECTRIC PROPERTIES CALCULATION
------------------------------------------------------------------------------

Dipole Moment Calculation                       ... on
Quadrupole Moment Calculation                   ... off
Polarizability Calculation                      ... off
GBWName                                         ... PbMACl3_mp2_md2_2.orca.gbw
Electron density file                           ... PbMACl3_mp2_md2_2.orca.pmp2re

-------------
DIPOLE MOMENT
-------------
                                X             Y             Z
Electronic contribution:    -33.06105    -161.46187     -29.26977
Nuclear contribution   :     35.22947     158.25511      31.47319
                        -----------------------------------------
Total Dipole Moment    :      2.16842      -3.20676       2.20342
                        -----------------------------------------
Magnitude (a.u.)       :      4.45426
Magnitude (Debye)      :     11.32182


Timings for individual modules:

Sum of individual times         ...      896.084 sec (=  14.935 min)
GTO integral calculation        ...        1.711 sec (=   0.029 min)   0.2 %
SCF iterations                  ...      320.407 sec (=   5.340 min)  35.8 %
MP2 module                      ...      573.966 sec (=   9.566 min)  64.1 %
                             ****ORCA TERMINATED NORMALLY****
TOTAL RUN TIME: 0 days 0 hours 14 minutes 57 seconds 486 msec
