
                                 *****************
                                 * O   R   C   A *
                                 *****************

           --- An Ab Initio, DFT and Semiempirical electronic structure package ---

                  #######################################################
                  #                        -***-                        #
                  #  Department of molecular theory and spectroscopy    #
                  #              Directorship: Frank Neese              #
                  # Max Planck Institute for Chemical Energy Conversion #
                  #                  D-45470 Muelheim/Ruhr              #
                  #                       Germany                       #
                  #                                                     #
                  #                  All rights reserved                #
                  #                        -***-                        #
                  #######################################################


                         Program Version 3.0.3 - RELEASE   -


 With contributions from (in alphabetic order):
   Ute Becker             : Parallelization
   Dmytro Bykov           : SCF Hessian
   Dmitry Ganyushin       : Spin-Orbit,Spin-Spin,Magnetic field MRCI
   Andreas Hansen         : Spin unrestricted coupled pair/coupled cluster methods
   Dimitrios Liakos       : Extrapolation schemes; parallel MDCI
   Robert Izsak           : Overlap fitted RIJCOSX, COSX-SCS-MP3
   Christian Kollmar      : KDIIS, OOCD, Brueckner-CCSD(T), CCSD density
   Simone Kossmann        : Meta GGA functionals, TD-DFT gradient, OOMP2, MP2 Hessian
   Taras Petrenko         : DFT Hessian,TD-DFT gradient, ASA and ECA modules, normal mode analysis, Resonance Raman, ABS, FL, XAS/XES, NRVS
   Christoph Reimann      : Effective Core Potentials
   Michael Roemelt        : Restricted open shell CIS
   Christoph Riplinger    : Improved optimizer, TS searches, QM/MM, DLPNO-CCSD
   Barbara Sandhoefer     : DKH picture change effects
   Igor Schapiro          : Molecular dynamics
   Kantharuban Sivalingam : CASSCF convergence, NEVPT2
   Boris Wezisla          : Elementary symmetry handling
   Frank Wennmohs         : Technical directorship


 We gratefully acknowledge several colleagues who have allowed us to
 interface, adapt or use parts of their codes:
   Stefan Grimme, W. Hujo, H. Kruse, T. Risthaus : VdW corrections, initial TS optimization,
                                                   DFT functionals, gCP
   Ed Valeev                                     : LibInt (2-el integral package), F12 methods
   Garnet Chan, S. Sharma, R. Olivares           : DMRG
   Ulf Ekstrom                                   : XCFun DFT Library
   Mihaly Kallay                                 : mrcc  (arbitrary order and MRCC methods)
   Andreas Klamt, Michael Diedenhofen            : otool_cosmo (COSMO solvation model)
   Frank Weinhold                                : gennbo (NPA and NBO analysis)
   Christopher J. Cramer and Donald G. Truhlar   : smd solvation model


 Your calculation uses the libint2 library for the computation of 2-el integrals
 For citations please refer to: http://libint.valeyev.net

 This ORCA versions uses:
   CBLAS   interface :  Fast vector & matrix operations
   LAPACKE interface :  Fast linear algebra routines
   SCALAPACK package :  Parallel linear algebra routines


Your calculation utilizes the basis: Ahlrichs-TZV
Cite in your paper:
H - Kr: A. Schaefer, H. Horn and R. Ahlrichs, J. Chem. Phys. 97, 2571 (1992).

The def2-TZV basis will be loaded
Cite in your paper:
 	F. Weigend, R. Ahlrichs, Phys. Chem. Chem. Phys. 2005, 7, 3297.

Your calculation utilizes the atom-pairwise dispersion correction
with the Becke-Johnson damping scheme (D3BJ)
Cite in your paper:
S.Grimme, S.Ehrlich, L.Goerigk, J Comput Chem, (2011), 32, 1456–1465 
S.Grimme, J.Antony, S.Ehrlich and H.Krieg, J.Chem.Phys., 132, (2010), 154104 
   

================================================================================
                                        WARNINGS
                       Please study these warnings very carefully!
================================================================================

WARNING: The RI method has been chosen with no auxiliary basis (AUX or GTOAUX in BASIS block)
        Standard TZV/J expansion basis used (GTOAUX=TZV_J)

Now building the actual basis set
cite the ECPs for Pb [SD(60,MDF)] as follows:
  B. Metz, H. Stoll, M. Dolg, J. Chem. Phys. 113, 2563 (2000).

ECP parameters for Pb [SD(60,MDF)] have been obtained from:
  pseudopotential library of the Stuttgart/Cologne group
  http://www.theochem.uni-stuttgart.de/pseudopotentials/

cite the ECP basis sets for Pb [DEF2-TZVP] as follows:
  F. Weigend, R. Ahlrichs; Phys. Chem. Chem. Phys. 7, 3297(2005).

ECP basis sets for Pb [DEF2-TZVP] have been obtained from:
  Turbomole basis set library
  ftp://ftp.chemie.uni-karlsruhe.de/pub/basen/



INFO   : the flag for use of LIBINT has been found!

================================================================================
                                       INPUT FILE
================================================================================
NAME = PbMACl3_mp2_md_17.orca
|  1> ! RIJCOSX RI-B2PLYP D3BJ def2-TZVP ECP{def2-TZVP} TIGHTSCF Grid5 FinalGrid6 SlowConv MORead
|  2> %method
|  3>  RunTyp Gradient
|  4>  end
|  5> %maxcore 1000
|  6> %moinp "previous.gbw"
|  7> *xyz 0 1
|  8> C -2.121160 0.886986 -0.590359 
|  9> N -3.445760 1.105990 -1.090560 
| 10> H -3.504960 2.045880 -1.384950 
| 11> H -4.196010 0.812442 -0.481895 
| 12> H -3.401180 0.572738 -1.978640 
| 13> H -1.726460 1.720880 -0.051973 
| 14> H -1.560330 0.882414 -1.471240 
| 15> H -2.224780 -0.013251 -0.005213 
| 16> Pb -2.843620 -2.645810 -2.279160 
| 17> Cl -1.551760 -4.674380 -2.868800 
| 18> Cl -2.416620 -0.584994 -3.407890 
| 19> Cl -4.169900 -2.570710 -0.289631 
| 20> *
| 21> 
| 22>                          ****END OF INPUT****
================================================================================

                     *******************************
                     * Energy+Gradient Calculation *
                     *******************************

---------------------------------
CARTESIAN COORDINATES (ANGSTROEM)
---------------------------------
  C     -2.121160    0.886986   -0.590359
  N     -3.445760    1.105990   -1.090560
  H     -3.504960    2.045880   -1.384950
  H     -4.196010    0.812442   -0.481895
  H     -3.401180    0.572738   -1.978640
  H     -1.726460    1.720880   -0.051973
  H     -1.560330    0.882414   -1.471240
  H     -2.224780   -0.013251   -0.005213
  Pb    -2.843620   -2.645810   -2.279160
  Cl    -1.551760   -4.674380   -2.868800
  Cl    -2.416620   -0.584994   -3.407890
  Cl    -4.169900   -2.570710   -0.289631

----------------------------
CARTESIAN COORDINATES (A.U.)
----------------------------
  NO LB      ZA    FRAG    MASS        X           Y           Z
   0 C     6.0000    0    12.011         -4.008411486228402          1.676160624622275         -1.115616830695616
   1 N     7.0000    0    14.007         -6.511542723220492          2.090018206855565         -2.060859732609160
   2 H     1.0000    0     1.008         -6.623414510348630          3.866152902866810         -2.617176209174237
   3 H     1.0000    0     1.008         -7.929309755194912          1.535292879695250         -0.910649575305982
   4 H     1.0000    0     1.008         -6.427298732170283          1.082317966489790         -3.739087717621945
   5 H     1.0000    0     1.008         -3.262536581169684          3.251991909342403         -0.098214736358289
   6 H     1.0000    0     1.008         -2.948596378541346          1.667520796737987         -2.780240677270303
   7 H     1.0000    0     1.008         -4.204224908225322         -0.025040761000591         -0.009851142336131
   8 Pb   22.0000*   0   207.200  -5.373663028941150  -4.999856302390187  -4.306988215387960
   9 Cl   17.0000    0    35.453         -2.932401425573642         -8.833298045878820         -5.421246332993286
  10 Cl   17.0000    0    35.453         -4.566749969756775         -1.105478449987129         -6.439978794528894
  11 Cl   17.0000    0    35.453         -7.879969005838228         -4.857937869732701         -0.547323269893746
* core charge reduced due to ECP

--------------------------------
INTERNAL COORDINATES (ANGSTROEM)
--------------------------------
 C      0   0   0   0.000000     0.000     0.000
 N      1   0   0   1.432735     0.000     0.000
 H      2   1   0   0.986693   107.773     0.000
 H      2   1   3   1.009712   115.598   230.688
 H      2   1   3   1.036837   100.409   108.171
 H      1   2   3   1.068189   113.469    37.538
 H      1   2   3   1.044271   101.694   287.290
 H      1   2   3   1.078684   103.188   161.929
 Pb     5   2   1   3.280280   126.186    61.251
 Cl     9   5   2   2.476222   156.106   250.726
 Cl     5   2   1   2.086254   153.187   357.416
 Cl     9   5   2   2.392255    78.391    36.745

---------------------------
INTERNAL COORDINATES (A.U.)
---------------------------
 C      0   0   0   0.000000     0.000     0.000
 N      1   0   0   2.707476     0.000     0.000
 H      2   1   0   1.864580   107.773     0.000
 H      2   1   3   1.908079   115.598   230.688
 H      2   1   3   1.959338   100.409   108.171
 H      1   2   3   2.018584   113.469    37.538
 H      1   2   3   1.973387   101.694   287.290
 H      1   2   3   2.038418   103.188   161.929
 Pb     5   2   1   6.198831   126.186    61.251
 Cl     9   5   2   4.679381   156.106   250.726
 Cl     5   2   1   3.942449   153.187   357.416
 Cl     9   5   2   4.520707    78.391    36.745

---------------------
BASIS SET INFORMATION
---------------------
There are 5 groups of distinct atoms

 Group   1 Type C   : 11s6p2d1f contracted to 5s3p2d1f pattern {62111/411/11/1}
 Group   2 Type N   : 11s6p2d1f contracted to 5s3p2d1f pattern {62111/411/11/1}
 Group   3 Type H   : 5s1p contracted to 3s1p pattern {311/1}
 Group   4 Type Pb  : 10s9p8d2f contracted to 6s5p3d2f pattern {421111/33111/611/11}
 Group   5 Type Cl  : 14s9p3d1f contracted to 5s5p2d1f pattern {73211/51111/21/1}

Atom   0C    basis set group =>   1
Atom   1N    basis set group =>   2
Atom   2H    basis set group =>   3
Atom   3H    basis set group =>   3
Atom   4H    basis set group =>   3
Atom   5H    basis set group =>   3
Atom   6H    basis set group =>   3
Atom   7H    basis set group =>   3
Atom   8Pb   basis set group =>   4
Atom   9Cl   basis set group =>   5
Atom  10Cl   basis set group =>   5
Atom  11Cl   basis set group =>   5
-------------------------------
AUXILIARY BASIS SET INFORMATION
-------------------------------
There are 5 groups of distinct atoms

 Group   1 Type C   : 12s5p4d2f1g contracted to 6s4p3d1f1g pattern {711111/2111/211/2/1}
 Group   2 Type N   : 12s5p4d2f1g contracted to 6s4p3d1f1g pattern {711111/2111/211/2/1}
 Group   3 Type H   : 5s2p1d contracted to 3s1p1d pattern {311/2/1}
 Group   4 Type Pb  : 31s12p8d6f3g contracted to 31s12p8d6f3g pattern {1111111111111111111111111111111/111111111111/11111111/111111/111}
 Group   5 Type Cl  : 14s5p5d2f1g contracted to 8s4p3d1f1g pattern {71111111/2111/311/2/1}

Atom   0C    basis set group =>   1
Atom   1N    basis set group =>   2
Atom   2H    basis set group =>   3
Atom   3H    basis set group =>   3
Atom   4H    basis set group =>   3
Atom   5H    basis set group =>   3
Atom   6H    basis set group =>   3
Atom   7H    basis set group =>   3
Atom   8Pb   basis set group =>   4
Atom   9Cl   basis set group =>   5
Atom  10Cl   basis set group =>   5
Atom  11Cl   basis set group =>   5

-------------------------
ECP PARAMETER INFORMATION
-------------------------

 Group 1, Type Pb ECP SD(60,MDF) (replacing 60 core electrons, lmax=5)

Atom   8Pb   ECP group =>   1


------------------------------------------------------------------------------
                           ORCA GTO INTEGRAL CALCULATION
                           -- RI-GTO INTEGRALS CHOSEN --
------------------------------------------------------------------------------

                         BASIS SET STATISTICS AND STARTUP INFO

Gaussian basis set:
 # of primitive gaussian shells          ...  186
 # of primitive gaussian functions       ...  420
 # of contracted shells                  ...  101
 # of contracted basis functions         ...  259
 Highest angular momentum                ...    3
 Maximum contraction depth               ...    7
Auxiliary gaussian basis set:
 # of primitive gaussian shells          ...  237
 # of primitive gaussian functions       ...  643
 # of contracted shells                  ...  171
 # of contracted aux-basis functions     ...  493
 Highest angular momentum                ...    4
 Maximum contraction depth               ...    7
Ratio of auxiliary to basis functions    ...  1.90
Integral package used                  ... LIBINT
 One Electron integrals                  
   ECP integrals                         ... done
 Ordering auxiliary basis shells         ... done
 Integral threshhold             Thresh  ...  2.500e-11
 Primitive cut-off               TCut    ...  2.500e-12
 Pre-screening matrix                    ... done
 Shell pair data                         ... 
 Ordering of the shell pairs             ... done (   0.001 sec) 4243 of 5151 pairs
 Determination of significant pairs      ... done (   0.000 sec)
 Creation of shell pair data             ... done (   0.002 sec)
 Storage of shell pair data              ... done (   0.002 sec)
 Shell pair data done in (   0.004 sec)
 Computing two index integrals           ... done
 Cholesky decomposition of the V-matrix  ... done


Timings:
 Total evaluation time                   ...   0.974 sec (  0.016 min)
 One electron matrix time                ...   0.439 sec (  0.007 min) = 45.0%
 Schwartz matrix evaluation time         ...   0.354 sec (  0.006 min) = 36.4%
 Two index repulsion integral time       ...   0.011 sec (  0.000 min) =  1.2%
 Cholesky decomposition of V             ...   0.127 sec (  0.002 min) = 13.1%
 Three index repulsion integral time     ...   0.000 sec (  0.000 min) =  0.0%

-------------------------------------------------------------------------------
                                 ORCA SCF
-------------------------------------------------------------------------------

------------
SCF SETTINGS
------------
Hamiltonian:
 Density Functional     Method          .... DFT(GTOs)
 Exchange Functional    Exchange        .... B88
   X-Alpha parameter    XAlpha          ....  0.666667
   Becke's b parameter  XBeta           ....  0.004200
 Correlation Functional Correlation     .... LYP
 LDA part of GGA corr.  LDAOpt          .... VWN-3
 Gradients option       PostSCFGGA      .... off
 Hybrid DFT is turned on
   Fraction HF Exchange ScalHFX         ....  0.530000
   Scaling of DF-GGA-X  ScalDFX         ....  0.470000
   Scaling of DF-GGA-C  ScalDFC         ....  0.730000
   Scaling of DF-LDA-C  ScalLDAC        ....  0.730000
   Perturbative correction              ....  0.270000
 RI-approximation to the Coulomb term is turned on
   Number of auxiliary basis functions  .... 493
   RIJ-COSX (HFX calculated with COS-X)).... on


General Settings:
 Integral files         IntName         .... PbMACl3_mp2_md_17.orca
 Hartree-Fock type      HFTyp           .... RHF
 Total Charge           Charge          ....    0
 Multiplicity           Mult            ....    1
 Number of Electrons    NEL             ....   92
 Basis Dimension        Dim             ....  259
 Nuclear Repulsion      ENuc            ....    586.5772876742 Eh

Convergence Acceleration:
 DIIS                   CNVDIIS         .... on
   Start iteration      DIISMaxIt       ....     0
   Startup error        DIISStart       ....  0.200000
   # of expansion vecs  DIISMaxEq       ....     5
   Bias factor          DIISBfac        ....   1.050
   Max. coefficient     DIISMaxC        ....  10.000
 Newton-Raphson         CNVNR           .... off
 SOSCF                  CNVSOSCF        .... on
   Start iteration      SOSCFMaxIt      ....   150
   Startup grad/error   SOSCFStart      ....  0.001000
 Level Shifting         CNVShift        .... on
   Level shift para.    LevelShift      ....    0.2500
   Turn off err/grad.   ShiftErr        ....    0.0000
 Zerner damping         CNVZerner       .... off
 Static damping         CNVDamp         .... on
   Fraction old density DampFac         ....    0.8500
   Max. Damping (<1)    DampMax         ....    0.9800
   Min. Damping (>=0)   DampMin         ....    0.0000
   Turn off err/grad.   DampErr         ....    0.0300
 Fernandez-Rico         CNVRico         .... off

SCF Procedure:
 Maximum # iterations   MaxIter         ....   125
 SCF integral mode      SCFMode         .... Direct
   Integral package                     .... LIBINT
 Reset frequeny         DirectResetFreq ....    20
 Integral Threshold     Thresh          ....  2.500e-11 Eh
 Primitive CutOff       TCut            ....  2.500e-12 Eh

Convergence Tolerance:
 Convergence Check Mode ConvCheckMode   .... Total+1el-Energy
 Energy Change          TolE            ....  1.000e-08 Eh
 1-El. energy change                    ....  1.000e-05 Eh
 Orbital Gradient       TolG            ....  1.000e-05
 Orbital Rotation angle TolX            ....  1.000e-05
 DIIS Error             TolErr          ....  5.000e-07


Diagonalization of the overlap matrix:
Smallest eigenvalue                        ... 7.960e-04
Time for diagonalization                   ...    0.236 sec
Threshold for overlap eigenvalues          ... 1.000e-08
Number of eigenvalues below threshold      ... 0
Time for construction of square roots      ...    0.009 sec
Total time needed                          ...    0.246 sec

---------------------
INITIAL GUESS: MOREAD
---------------------
Guess MOs are being read from file: previous.gbw
Input geometry compatible with but different from current geometry
Input basis set matches current basis set (good)
MOs were renormalized
MOs were reorthogonalized (Schmidt)
                      ------------------
                      INITIAL GUESS DONE (   0.1 sec)
                      ------------------
-------------------
DFT GRID GENERATION
-------------------

General Integration Accuracy     IntAcc      ...  5.010
Radial Grid Type                 RadialGrid  ... Gauss-Chebyshev
Angular Grid (max. acc.)         AngularGrid ... Lebedev-434
Angular grid pruning method      GridPruning ... 3 (G Style)
Weight generation scheme         WeightScheme... Becke
Basis function cutoff            BFCut       ...    1.0000e-11
Integration weight cutoff        WCut        ...    1.0000e-14
Grids for H and He will be reduced by one unit

# of grid points (after initial pruning)     ... 115882 (   0.1 sec)
# of grid points (after weights+screening)   ... 108735 (   0.4 sec)
nearest neighbour list constructed           ...    0.0 sec
Grid point re-assignment to atoms done       ...    0.0 sec
Grid point division into batches done        ...    1.1 sec
Reduced shell lists constructed in    3.4 sec

Total number of grid points                  ...   108735
Total number of batches                      ...     1706
Average number of points per batch           ...       63
Average number of grid points per atom       ...     9061
Average number of shells per batch           ...    52.63 (52.11%)
Average number of basis functions per batch  ...   137.93 (53.25%)
Average number of large shells per batch     ...    39.75 (75.52%)
Average number of large basis fcns per batch ...   102.64 (74.42%)
Maximum spatial batch extension              ...  36.78, 27.93, 41.08 au
Average spatial batch extension              ...   2.53,  2.30,  2.48 au

Time for grid setup =    3.935 sec

--------------------
COSX GRID GENERATION
--------------------

General Integration Accuracy     IntAcc      ...  3.340
Radial Grid Type                 RadialGrid  ... Gauss-Chebyshev
Angular Grid (max. acc.)         AngularGrid ... Lebedev-50
Angular grid pruning method      GridPruning ... 3 (G Style)
Weight generation scheme         WeightScheme... Becke
Basis function cutoff            BFCut       ...    1.0000e-11
Integration weight cutoff        WCut        ...    1.0000e-14
Grids for H and He will be reduced by one unit

# of grid points (after initial pruning)     ...   6578 (   0.0 sec)
# of grid points (after weights+screening)   ...   6275 (   0.0 sec)
nearest neighbour list constructed           ...    0.0 sec
Grid point re-assignment to atoms done       ...    0.0 sec
Grid point division into batches done        ...    0.0 sec
Reduced shell lists constructed in    0.2 sec

Total number of grid points                  ...     6275
Total number of batches                      ...      105
Average number of points per batch           ...       59
Average number of grid points per atom       ...      523
Average number of shells per batch           ...    63.11 (62.49%)
Average number of basis functions per batch  ...   167.96 (64.85%)
Average number of large shells per batch     ...    48.70 (77.16%)
Average number of large basis fcns per batch ...   127.53 (75.93%)
Maximum spatial batch extension              ...  40.64, 24.36, 36.32 au
Average spatial batch extension              ...   6.38,  5.67,  6.47 au

Overlap Fitting                  UseSFitting ... on
Constructing numerical overlap ... done (      0.1 sec)
Inverting numerical overlap    ... done (      0.0 sec)
Obtaining analytic overlap     ... done (      0.0 sec)
Final contraction and storage  ... done (      0.0 sec)


General Integration Accuracy     IntAcc      ...  3.670
Radial Grid Type                 RadialGrid  ... Gauss-Chebyshev
Angular Grid (max. acc.)         AngularGrid ... Lebedev-50
Angular grid pruning method      GridPruning ... 3 (G Style)
Weight generation scheme         WeightScheme... Becke
Basis function cutoff            BFCut       ...    1.0000e-11
Integration weight cutoff        WCut        ...    1.0000e-14
Grids for H and He will be reduced by one unit

# of grid points (after initial pruning)     ...   8124 (   0.0 sec)
# of grid points (after weights+screening)   ...   7734 (   0.0 sec)
nearest neighbour list constructed           ...    0.0 sec
Grid point re-assignment to atoms done       ...    0.0 sec
Grid point division into batches done        ...    0.0 sec
Reduced shell lists constructed in    0.2 sec

Total number of grid points                  ...     7734
Total number of batches                      ...      127
Average number of points per batch           ...       60
Average number of grid points per atom       ...      644
Average number of shells per batch           ...    62.66 (62.04%)
Average number of basis functions per batch  ...   166.09 (64.13%)
Average number of large shells per batch     ...    48.50 (77.41%)
Average number of large basis fcns per batch ...   126.64 (76.25%)
Maximum spatial batch extension              ...  42.24, 25.37, 37.91 au
Average spatial batch extension              ...   5.92,  5.26,  5.94 au

Overlap Fitting                  UseSFitting ... on
Constructing numerical overlap ... done (      0.1 sec)
Inverting numerical overlap    ... done (      0.0 sec)
Obtaining analytic overlap     ... done (      0.0 sec)
Final contraction and storage  ... done (      0.0 sec)


General Integration Accuracy     IntAcc      ...  4.010
Radial Grid Type                 RadialGrid  ... Gauss-Chebyshev
Angular Grid (max. acc.)         AngularGrid ... Lebedev-110
Angular grid pruning method      GridPruning ... 3 (G Style)
Weight generation scheme         WeightScheme... Becke
Basis function cutoff            BFCut       ...    1.0000e-11
Integration weight cutoff        WCut        ...    1.0000e-14
Grids for H and He will be reduced by one unit

# of grid points (after initial pruning)     ...  15170 (   0.0 sec)
# of grid points (after weights+screening)   ...  14475 (   0.1 sec)
nearest neighbour list constructed           ...    0.0 sec
Grid point re-assignment to atoms done       ...    0.0 sec
Grid point division into batches done        ...    0.0 sec
Reduced shell lists constructed in    0.4 sec

Total number of grid points                  ...    14475
Total number of batches                      ...      231
Average number of points per batch           ...       62
Average number of grid points per atom       ...     1206
Average number of shells per batch           ...    59.59 (59.00%)
Average number of basis functions per batch  ...   158.00 (61.00%)
Average number of large shells per batch     ...    45.76 (76.80%)
Average number of large basis fcns per batch ...   119.77 (75.80%)
Maximum spatial batch extension              ...  39.26, 25.19, 39.35 au
Average spatial batch extension              ...   5.28,  4.31,  5.08 au

Overlap Fitting                  UseSFitting ... on
Constructing numerical overlap ... done (      0.2 sec)
Inverting numerical overlap    ... done (      0.0 sec)
Obtaining analytic overlap     ... done (      0.0 sec)
Final contraction and storage  ... done (      0.0 sec)

Time for X-Grid setup             =    1.486 sec
--------------
SCF ITERATIONS
--------------
ITER       Energy         Delta-E        Max-DP      RMS-DP      [F,P]     Damp
               ***  Starting incremental Fock matrix formation  ***
  0  -1663.8647401371   0.000000000000 0.08699989  0.00201720  0.7486333 0.8500
  1  -1664.5692757982  -0.704535661042 0.08665974  0.00187412  0.6369370 0.8500
                               ***Turning on DIIS***
  2  -1665.1751092297  -0.605833431561 0.07297134  0.00162421  0.5416326 0.8500
  3  -1665.6927710848  -0.517661855059 0.05969416  0.00138619  0.4605719 0.8500
  4  -1666.1406249823  -0.447853897501 0.04984000  0.00120062  0.3915851 0.8500
  5  -1666.5268213088  -0.386196326452 0.04190293  0.00104611  0.3328841 0.8500
  6  -1666.8621879165  -0.335366607712 0.03573699  0.00090768  0.2829630 0.8500
  7  -1667.1540371002  -0.291849183703 0.03063474  0.00078391  0.2405231 0.8500
  8  -1667.4076684512  -0.253631351049 0.02642612  0.00067350  0.2044511 0.8500
  9  -1667.6267326373  -0.219064186037 0.02259189  0.00057652  0.1737902 0.8500
 10  -1667.8152964320  -0.188563794761 0.01916711  0.00049294  0.1477273 0.8500
 11  -1667.9773498125  -0.162053380453 0.01624580  0.00042150  0.1255727 0.8500
 12  -1668.1164548524  -0.139105039955 0.01379700  0.00036050  0.1067404 0.8500
 13  -1668.2357104139  -0.119255561513 0.01174018  0.00030825  0.0907324 0.8500
 14  -1668.3378112497  -0.102100835772 0.00998980  0.00026345  0.0771251 0.8500
 15  -1668.4251234614  -0.087312211656 0.00849220  0.00022513  0.0655585 0.8500
 16  -1668.4997214262  -0.074597964801 0.00721564  0.00019240  0.0557266 0.8500
 17  -1668.5634102471  -0.063688820968 0.00613237  0.00016446  0.0473692 0.8500
 18  -1668.6177515017  -0.054341254538 0.00521409  0.00014060  0.0402652 0.8500
 19  -1668.6640917869  -0.046340285256 0.00443425  0.00012023  0.0342266 0.8500
               *** Restarting incremental Fock matrix formation ***
                                   *** Resetting DIIS ***
 20  -1668.7061672153  -0.042075428381 0.02421177  0.00065026  0.0290941 0.0000
 21  -1668.9316990650  -0.225531849696 0.00468306  0.00008241  0.0098948 0.0000
 22  -1668.9318996152  -0.000200550210 0.00191112  0.00003737  0.0051571 0.0000
                      *** Initiating the SOSCF procedure ***
                           *** Shutting down DIIS ***
                      *** Re-Reading the Fockian *** 
                      *** Removing any level shift *** 
ITER      Energy       Delta-E        Grad      Rot      Max-DP    RMS-DP
 23  -1668.93195644  -0.0000568287  0.000635  0.000635  0.000856  0.000018
               *** Restarting incremental Fock matrix formation ***
 24  -1668.92946772   0.0024887215  0.000572  0.002995  0.001700  0.000044
 25  -1668.92947179  -0.0000040627  0.000179  0.002358  0.001162  0.000029
 26  -1668.92947190  -0.0000001190  0.000161  0.000220  0.000663  0.000012
 27  -1668.92947343  -0.0000015294  0.000031  0.000045  0.000115  0.000003
 28  -1668.92947366  -0.0000002298  0.000006  0.000041  0.000055  0.000001
 29  -1668.92947369  -0.0000000305  0.000004  0.000007  0.000012  0.000000
                  ***Gradient check signals convergence***
              ***Rediagonalizing the Fockian in SOSCF/NRSCF***

               *****************************************************
               *                     SUCCESS                       *
               *           SCF CONVERGED AFTER  30 CYCLES          *
               *****************************************************

Old exchange energy                            =    -59.286044143 Eh
New exchange energy                            =    -59.288546142 Eh
Exchange energy change after final integration =     -0.002501999 Eh
Total energy after final integration           =  -1668.931975681 Eh
Final COS-X integration done in                =    29.511 sec

----------------
TOTAL SCF ENERGY
----------------

Total Energy       :        -1668.93197568 Eh          -45413.94786 eV

Components:
Nuclear Repulsion  :          586.57728767 Eh           15961.57947 eV
Electronic Energy  :        -2255.50926336 Eh          -61375.52733 eV

One Electron Energy:        -3544.45664734 Eh          -96449.56878 eV
Two Electron Energy:         1288.94738398 Eh           35074.04145 eV

Virial components:
Potential Energy   :        -3207.48271818 Eh          -87280.04199 eV
Kinetic Energy     :         1538.55074250 Eh           41866.09413 eV
Virial Ratio       :            2.08474289


DFT components:
N(Alpha)           :       46.000004853670 electrons
N(Beta)            :       46.000004853670 electrons
N(Total)           :       92.000009707340 electrons
E(X)               :      -52.651128588086 Eh       
E(C)               :       -2.613785987384 Eh       
E(XC)              :      -55.264914575469 Eh       

---------------
SCF CONVERGENCE
---------------

  Last Energy change         ...    1.1458e-08  Tolerance :   1.0000e-08
  Last MAX-Density change    ...    1.0929e-13  Tolerance :   1.0000e-07
  Last RMS-Density change    ...    7.4104e-16  Tolerance :   5.0000e-09
  Last Orbital Gradient      ...    1.0019e-06  Tolerance :   1.0000e-05
  Last Orbital Rotation      ...    1.5548e-06  Tolerance :   1.0000e-05

             **** THE GBW FILE WAS UPDATED (PbMACl3_mp2_md_17.orca.gbw) ****
             **** DENSITY FILE WAS UPDATED (PbMACl3_mp2_md_17.orca.scfp.tmp) ****
             **** ENERGY FILE WAS UPDATED (PbMACl3_mp2_md_17.orca.en.tmp) ****
----------------
ORBITAL ENERGIES
----------------

  NO   OCC          E(Eh)            E(eV) 
   0   2.0000    -102.861109     -2798.9931 
   1   2.0000    -102.835649     -2798.3003 
   2   2.0000    -102.799895     -2797.3274 
   3   2.0000     -15.015913      -408.6038 
   4   2.0000     -10.716941      -291.6228 
   5   2.0000      -9.871909      -268.6283 
   6   2.0000      -9.845061      -267.8977 
   7   2.0000      -9.808037      -266.8903 
   8   2.0000      -7.508026      -204.3038 
   9   2.0000      -7.507279      -204.2835 
  10   2.0000      -7.506908      -204.2733 
  11   2.0000      -7.481354      -203.5780 
  12   2.0000      -7.480460      -203.5537 
  13   2.0000      -7.480165      -203.5456 
  14   2.0000      -7.444541      -202.5763 
  15   2.0000      -7.443549      -202.5493 
  16   2.0000      -7.443167      -202.5389 
  17   2.0000      -5.765616      -156.8904 
  18   2.0000      -3.539498       -96.3146 
  19   2.0000      -3.536192       -96.2247 
  20   2.0000      -3.534548       -96.1800 
  21   2.0000      -1.219607       -33.1872 
  22   2.0000      -0.957239       -26.0478 
  23   2.0000      -0.947610       -25.7858 
  24   2.0000      -0.937058       -25.4986 
  25   2.0000      -0.929939       -25.3049 
  26   2.0000      -0.928331       -25.2612 
  27   2.0000      -0.897263       -24.4158 
  28   2.0000      -0.883959       -24.0537 
  29   2.0000      -0.853669       -23.2295 
  30   2.0000      -0.819701       -22.3052 
  31   2.0000      -0.763473       -20.7752 
  32   2.0000      -0.734185       -19.9782 
  33   2.0000      -0.631806       -17.1923 
  34   2.0000      -0.567171       -15.4335 
  35   2.0000      -0.543336       -14.7849 
  36   2.0000      -0.533842       -14.5266 
  37   2.0000      -0.401449       -10.9240 
  38   2.0000      -0.387809       -10.5528 
  39   2.0000      -0.374534       -10.1916 
  40   2.0000      -0.356972        -9.7137 
  41   2.0000      -0.344173        -9.3654 
  42   2.0000      -0.337746        -9.1905 
  43   2.0000      -0.303225        -8.2512 
  44   2.0000      -0.299994        -8.1632 
  45   2.0000      -0.212859        -5.7922 
  46   0.0000      -0.021741        -0.5916 
  47   0.0000      -0.011540        -0.3140 
  48   0.0000       0.042834         1.1656 
  49   0.0000       0.063853         1.7375 
  50   0.0000       0.074048         2.0149 
  51   0.0000       0.080739         2.1970 
  52   0.0000       0.101936         2.7738 
  53   0.0000       0.122414         3.3311 
  54   0.0000       0.132725         3.6116 
  55   0.0000       0.141571         3.8523 
  56   0.0000       0.154588         4.2065 
  57   0.0000       0.167548         4.5592 
  58   0.0000       0.178342         4.8529 
  59   0.0000       0.182717         4.9720 
  60   0.0000       0.202095         5.4993 
  61   0.0000       0.217360         5.9147 
  62   0.0000       0.253379         6.8948 
  63   0.0000       0.256615         6.9829 
  64   0.0000       0.266803         7.2601 
  65   0.0000       0.270643         7.3646 
  66   0.0000       0.304599         8.2886 
  67   0.0000       0.317877         8.6499 
  68   0.0000       0.355082         9.6623 
  69   0.0000       0.372768        10.1435 
  70   0.0000       0.385765        10.4972 
  71   0.0000       0.407368        11.0850 
  72   0.0000       0.418735        11.3943 
  73   0.0000       0.425289        11.5727 
  74   0.0000       0.445014        12.1094 
  75   0.0000       0.451294        12.2803 
  76   0.0000       0.459506        12.5038 
  77   0.0000       0.462847        12.5947 
  78   0.0000       0.471977        12.8432 
  79   0.0000       0.478360        13.0168 
  80   0.0000       0.486333        13.2338 
  81   0.0000       0.495847        13.4927 
  82   0.0000       0.503104        13.6902 
  83   0.0000       0.516750        14.0615 
  84   0.0000       0.520151        14.1540 
  85   0.0000       0.535935        14.5835 
  86   0.0000       0.542289        14.7564 
  87   0.0000       0.549871        14.9628 
  88   0.0000       0.554615        15.0918 
  89   0.0000       0.576600        15.6901 
  90   0.0000       0.581267        15.8171 
  91   0.0000       0.599004        16.2997 
  92   0.0000       0.607844        16.5403 
  93   0.0000       0.620308        16.8794 
  94   0.0000       0.622587        16.9414 
  95   0.0000       0.632698        17.2166 
  96   0.0000       0.653387        17.7796 
  97   0.0000       0.657570        17.8934 
  98   0.0000       0.660535        17.9741 
  99   0.0000       0.665529        18.1100 
 100   0.0000       0.696512        18.9530 
 101   0.0000       0.754028        20.5181 
 102   0.0000       0.766582        20.8598 
 103   0.0000       0.801285        21.8041 
 104   0.0000       0.813719        22.1424 
 105   0.0000       0.818018        22.2594 
 106   0.0000       0.846026        23.0215 
 107   0.0000       0.859319        23.3832 
 108   0.0000       0.907712        24.7001 
 109   0.0000       0.926241        25.2043 
 110   0.0000       0.930840        25.3294 
 111   0.0000       0.937881        25.5211 
 112   0.0000       0.939766        25.5723 
 113   0.0000       0.954217        25.9656 
 114   0.0000       0.972734        26.4694 
 115   0.0000       1.005396        27.3582 
 116   0.0000       1.025583        27.9075 
 117   0.0000       1.031082        28.0572 
 118   0.0000       1.083772        29.4909 
 119   0.0000       1.088996        29.6331 
 120   0.0000       1.130322        30.7576 
 121   0.0000       1.141486        31.0614 
 122   0.0000       1.150920        31.3181 
 123   0.0000       1.177879        32.0517 
 124   0.0000       1.221610        33.2417 
 125   0.0000       1.272127        34.6163 
 126   0.0000       1.298874        35.3442 
 127   0.0000       1.334604        36.3164 
 128   0.0000       1.354979        36.8708 
 129   0.0000       1.360358        37.0172 
 130   0.0000       1.383238        37.6398 
 131   0.0000       1.513718        41.1904 
 132   0.0000       1.558534        42.4099 
 133   0.0000       1.572490        42.7896 
 134   0.0000       1.609446        43.7952 
 135   0.0000       1.639208        44.6051 
 136   0.0000       1.693034        46.0698 
 137   0.0000       1.735502        47.2254 
 138   0.0000       1.758299        47.8457 
 139   0.0000       1.816801        49.4377 
 140   0.0000       1.867595        50.8198 
 141   0.0000       1.932021        52.5730 
 142   0.0000       1.946608        52.9699 
 143   0.0000       1.957856        53.2760 
 144   0.0000       1.960558        53.3495 
 145   0.0000       1.966563        53.5129 
 146   0.0000       1.972301        53.6691 
 147   0.0000       1.991169        54.1825 
 148   0.0000       1.994373        54.2696 
 149   0.0000       2.003175        54.5092 
 150   0.0000       2.008606        54.6569 
 151   0.0000       2.027678        55.1759 
 152   0.0000       2.037895        55.4540 
 153   0.0000       2.049826        55.7786 
 154   0.0000       2.057613        55.9905 
 155   0.0000       2.067775        56.2670 
 156   0.0000       2.093630        56.9706 
 157   0.0000       2.098133        57.0931 
 158   0.0000       2.105842        57.3029 
 159   0.0000       2.147347        58.4323 
 160   0.0000       2.154342        58.6226 
 161   0.0000       2.163592        58.8743 
 162   0.0000       2.172236        59.1095 
 163   0.0000       2.174899        59.1820 
 164   0.0000       2.182102        59.3780 
 165   0.0000       2.195206        59.7346 
 166   0.0000       2.210172        60.1418 
 167   0.0000       2.238631        60.9163 
 168   0.0000       2.246555        61.1319 
 169   0.0000       2.248898        61.1956 
 170   0.0000       2.258019        61.4438 
 171   0.0000       2.267652        61.7059 
 172   0.0000       2.279480        62.0278 
 173   0.0000       2.283709        62.1429 
 174   0.0000       2.295998        62.4773 
 175   0.0000       2.302396        62.6514 
 176   0.0000       2.304458        62.7075 
 177   0.0000       2.307656        62.7945 
 178   0.0000       2.327139        63.3247 
 179   0.0000       2.334085        63.5137 
 180   0.0000       2.347324        63.8739 
 181   0.0000       2.361267        64.2533 
 182   0.0000       2.373941        64.5982 
 183   0.0000       2.382832        64.8402 
 184   0.0000       2.408908        65.5497 
 185   0.0000       2.419409        65.8355 
 186   0.0000       2.428942        66.0949 
 187   0.0000       2.438349        66.3509 
 188   0.0000       2.449587        66.6566 
 189   0.0000       2.452919        66.7473 
 190   0.0000       2.465352        67.0856 
 191   0.0000       2.475958        67.3742 
 192   0.0000       2.496157        67.9239 
 193   0.0000       2.508339        68.2554 
 194   0.0000       2.516146        68.4678 
 195   0.0000       2.529146        68.8216 
 196   0.0000       2.534745        68.9739 
 197   0.0000       2.583586        70.3030 
 198   0.0000       2.592718        70.5515 
 199   0.0000       2.595489        70.6268 
 200   0.0000       2.617381        71.2226 
 201   0.0000       2.666129        72.5491 
 202   0.0000       2.681442        72.9658 
 203   0.0000       2.689669        73.1896 
 204   0.0000       2.732006        74.3417 
 205   0.0000       2.783872        75.7530 
 206   0.0000       2.833889        77.1140 
 207   0.0000       2.844673        77.4075 
 208   0.0000       2.870929        78.1219 
 209   0.0000       2.895182        78.7819 
 210   0.0000       2.961103        80.5757 
 211   0.0000       2.996373        81.5355 
 212   0.0000       3.080362        83.8209 
 213   0.0000       3.124665        85.0265 
 214   0.0000       3.201359        87.1134 
 215   0.0000       3.239470        88.1505 
 216   0.0000       3.303892        89.9035 
 217   0.0000       3.477819        94.6363 
 218   0.0000       3.548615        96.5627 
 219   0.0000       3.569740        97.1376 
 220   0.0000       3.641318        99.0853 
 221   0.0000       3.717052       101.1461 
 222   0.0000       3.765172       102.4555 
 223   0.0000       3.836197       104.3882 
 224   0.0000       3.960032       107.7579 
 225   0.0000       4.152626       112.9987 
 226   0.0000       4.284007       116.5738 
 227   0.0000       4.473286       121.7243 
 228   0.0000       4.611761       125.4924 
 229   0.0000       4.769096       129.7737 
 230   0.0000       4.866439       132.4225 
 231   0.0000       4.929478       134.1379 
 232   0.0000       4.950347       134.7058 
 233   0.0000       5.005761       136.2137 
 234   0.0000       5.087640       138.4417 
 235   0.0000       5.176689       140.8649 
 236   0.0000       5.266506       143.3089 
 237   0.0000       5.435438       147.9058 
 238   0.0000       5.616942       152.8448 
 239   0.0000       5.903059       160.6304 
 240   0.0000      11.070627       301.2471 
 241   0.0000      11.079693       301.4938 
 242   0.0000      11.096806       301.9594 
 243   0.0000      11.113269       302.4074 
 244   0.0000      11.118140       302.5400 
 245   0.0000      11.147618       303.3421 
 246   0.0000      11.237552       305.7893 
 247   0.0000      11.242343       305.9197 
 248   0.0000      11.283072       307.0280 
 249   0.0000      22.833216       621.3234 
 250   0.0000      25.224929       686.4052 
 251   0.0000      25.301684       688.4938 
 252   0.0000      25.460936       692.8273 
 253   0.0000      32.305167       879.0683 
 254   0.0000      35.701397       971.4844 
 255   0.0000      35.767425       973.2811 
 256   0.0000      35.928274       977.6580 
 257   0.0000      35.952685       978.3223 
 258   0.0000     123.689085      3365.7511 

                    ********************************
                    * MULLIKEN POPULATION ANALYSIS *
                    ********************************

-----------------------
MULLIKEN ATOMIC CHARGES
-----------------------
   0 C :   -0.290072
   1 N :   -0.247994
   2 H :    0.275718
   3 H :    0.304623
   4 H :    0.281625
   5 H :    0.156826
   6 H :    0.175724
   7 H :    0.170063
   8 Pb:    0.849395
   9 Cl:   -0.556166
  10 Cl:   -0.551191
  11 Cl:   -0.568552
Sum of atomic charges:    0.0000000

--------------------------------
MULLIKEN REDUCED ORBITAL CHARGES
--------------------------------
  0 C s       :     3.284926  s :     3.284926
      pz      :     1.079577  p :     2.930609
      px      :     0.740486
      py      :     1.110545
      dz2     :     0.009652  d :     0.067553
      dxz     :     0.017746
      dyz     :     0.012484
      dx2y2   :     0.016222
      dxy     :     0.011450
      f0      :     0.000598  f :     0.006985
      f+1     :     0.001492
      f-1     :     0.000048
      f+2     :     0.001866
      f-2     :     0.000710
      f+3     :     0.001272
      f-3     :     0.000998
  1 N s       :     3.402333  s :     3.402333
      pz      :     1.304880  p :     3.792328
      px      :     1.226150
      py      :     1.261298
      dz2     :     0.007255  d :     0.050579
      dxz     :     0.013829
      dyz     :     0.007761
      dx2y2   :     0.012573
      dxy     :     0.009161
      f0      :     0.000191  f :     0.002753
      f+1     :     0.000411
      f-1     :     0.000270
      f+2     :     0.000799
      f-2     :     0.000307
      f+3     :     0.000206
      f-3     :     0.000570
  2 H s       :     0.687800  s :     0.687800
      pz      :     0.008918  p :     0.036482
      px      :     0.006560
      py      :     0.021004
  3 H s       :     0.660843  s :     0.660843
      pz      :     0.011753  p :     0.034534
      px      :     0.015167
      py      :     0.007614
  4 H s       :     0.675339  s :     0.675339
      pz      :     0.023310  p :     0.043036
      px      :     0.006905
      py      :     0.012821
  5 H s       :     0.820772  s :     0.820772
      pz      :     0.007098  p :     0.022401
      px      :     0.005479
      py      :     0.009824
  6 H s       :     0.799275  s :     0.799275
      pz      :     0.012836  p :     0.025002
      px      :     0.007574
      py      :     0.004591
  7 H s       :     0.806973  s :     0.806973
      pz      :     0.007366  p :     0.022963
      px      :     0.003308
      py      :     0.012289
  8 Pbs       :     3.999586  s :     3.999586
      pz      :     2.291303  p :     6.881853
      px      :     2.273206
      py      :     2.317344
      dz2     :     2.032516  d :    10.185162
      dxz     :     2.041322
      dyz     :     2.035915
      dx2y2   :     2.037892
      dxy     :     2.037517
      f0      :     0.012102  f :     0.084004
      f+1     :     0.010473
      f-1     :     0.012117
      f+2     :     0.015380
      f-2     :     0.010260
      f+3     :     0.013328
      f-3     :     0.010344
  9 Cls       :     5.949836  s :     5.949836
      pz      :     3.895476  p :    11.586185
      px      :     3.881565
      py      :     3.809143
      dz2     :     0.002731  d :     0.019240
      dxz     :     0.001318
      dyz     :     0.003502
      dx2y2   :     0.004042
      dxy     :     0.007647
      f0      :     0.000092  f :     0.000906
      f+1     :     0.000051
      f-1     :     0.000126
      f+2     :     0.000061
      f-2     :     0.000145
      f+3     :     0.000278
      f-3     :     0.000154
 10 Cls       :     5.947923  s :     5.947923
      pz      :     3.866564  p :    11.573923
      px      :     3.895280
      py      :     3.812079
      dz2     :     0.004332  d :     0.028131
      dxz     :     0.003574
      dyz     :     0.009766
      dx2y2   :     0.006880
      dxy     :     0.003579
      f0      :     0.000133  f :     0.001214
      f+1     :     0.000050
      f-1     :     0.000175
      f+2     :     0.000309
      f-2     :     0.000176
      f+3     :     0.000181
      f-3     :     0.000189
 11 Cls       :     5.944894  s :     5.944894
      pz      :     3.844271  p :    11.599380
      px      :     3.842937
      py      :     3.912171
      dz2     :     0.007298  d :     0.023145
      dxz     :     0.009582
      dyz     :     0.002598
      dx2y2   :     0.002186
      dxy     :     0.001481
      f0      :     0.000186  f :     0.001133
      f+1     :     0.000461
      f-1     :     0.000083
      f+2     :     0.000218
      f-2     :     0.000134
      f+3     :     0.000029
      f-3     :     0.000023


                     *******************************
                     * LOEWDIN POPULATION ANALYSIS *
                     *******************************

----------------------
LOEWDIN ATOMIC CHARGES
----------------------
   0 C :   -0.291252
   1 N :    0.151445
   2 H :    0.190824
   3 H :    0.201280
   4 H :    0.168718
   5 H :    0.117309
   6 H :    0.113369
   7 H :    0.131740
   8 Pb:   -0.216204
   9 Cl:   -0.229114
  10 Cl:   -0.141185
  11 Cl:   -0.196932

-------------------------------
LOEWDIN REDUCED ORBITAL CHARGES
-------------------------------
  0 C s       :     2.830881  s :     2.830881
      pz      :     1.101255  p :     3.092884
      px      :     0.891639
      py      :     1.099990
      dz2     :     0.032905  d :     0.321842
      dxz     :     0.096561
      dyz     :     0.053521
      dx2y2   :     0.080630
      dxy     :     0.058225
      f0      :     0.005262  f :     0.045643
      f+1     :     0.011369
      f-1     :     0.000676
      f+2     :     0.007386
      f-2     :     0.003588
      f+3     :     0.008868
      f-3     :     0.008495
  1 N s       :     2.953581  s :     2.953581
      pz      :     1.242947  p :     3.700713
      px      :     1.238693
      py      :     1.219072
      dz2     :     0.026601  d :     0.181430
      dxz     :     0.047325
      dyz     :     0.026238
      dx2y2   :     0.048583
      dxy     :     0.032683
      f0      :     0.001244  f :     0.012831
      f+1     :     0.002424
      f-1     :     0.001394
      f+2     :     0.001520
      f-2     :     0.001618
      f+3     :     0.001372
      f-3     :     0.003260
  2 H s       :     0.699544  s :     0.699544
      pz      :     0.027343  p :     0.109632
      px      :     0.021549
      py      :     0.060740
  3 H s       :     0.693602  s :     0.693602
      pz      :     0.038356  p :     0.105117
      px      :     0.043444
      py      :     0.023318
  4 H s       :     0.697046  s :     0.697046
      pz      :     0.073783  p :     0.134236
      px      :     0.020989
      py      :     0.039464
  5 H s       :     0.816737  s :     0.816737
      pz      :     0.021839  p :     0.065953
      px      :     0.015092
      py      :     0.029023
  6 H s       :     0.811464  s :     0.811464
      pz      :     0.038797  p :     0.075167
      px      :     0.020400
      py      :     0.015970
  7 H s       :     0.802443  s :     0.802443
      pz      :     0.021313  p :     0.065817
      px      :     0.010456
      py      :     0.034048
  8 Pbs       :     3.705085  s :     3.705085
      pz      :     2.465800  p :     7.397696
      px      :     2.396001
      py      :     2.535895
      dz2     :     2.140601  d :    10.828104
      dxz     :     2.181883
      dyz     :     2.178970
      dx2y2   :     2.167643
      dxy     :     2.159008
      f0      :     0.039722  f :     0.285319
      f+1     :     0.042899
      f-1     :     0.034244
      f+2     :     0.060735
      f-2     :     0.030126
      f+3     :     0.046882
      f-3     :     0.030710
  9 Cls       :     5.743524  s :     5.743524
      pz      :     3.841081  p :    11.440664
      px      :     3.828718
      py      :     3.770866
      dz2     :     0.007237  d :     0.042435
      dxz     :     0.002228
      dyz     :     0.005247
      dx2y2   :     0.006001
      dxy     :     0.021723
      f0      :     0.000243  f :     0.002490
      f+1     :     0.000151
      f-1     :     0.000348
      f+2     :     0.000101
      f-2     :     0.000368
      f+3     :     0.001120
      f-3     :     0.000159
 10 Cls       :     5.695444  s :     5.695444
      pz      :     3.787665  p :    11.371948
      px      :     3.830753
      py      :     3.753530
      dz2     :     0.005875  d :     0.069704
      dxz     :     0.004935
      dyz     :     0.028775
      dx2y2   :     0.021553
      dxy     :     0.008565
      f0      :     0.000662  f :     0.004089
      f+1     :     0.000084
      f-1     :     0.000292
      f+2     :     0.001321
      f-2     :     0.000562
      f+3     :     0.000494
      f-3     :     0.000674
 11 Cls       :     5.715529  s :     5.715529
      pz      :     3.795364  p :    11.422666
      px      :     3.785589
      py      :     3.841713
      dz2     :     0.017856  d :     0.055223
      dxz     :     0.028959
      dyz     :     0.002925
      dx2y2   :     0.003959
      dxy     :     0.001523
      f0      :     0.000326  f :     0.003514
      f+1     :     0.002034
      f-1     :     0.000128
      f+2     :     0.000741
      f-2     :     0.000183
      f+3     :     0.000070
      f-3     :     0.000033


                      *****************************
                      * MAYER POPULATION ANALYSIS *
                      *****************************

  NA   - Mulliken gross atomic population
  ZA   - Total nuclear charge
  QA   - Mulliken gross atomic charge
  VA   - Mayer's total valence
  BVA  - Mayer's bonded valence
  FA   - Mayer's free valence

  ATOM       NA         ZA         QA         VA         BVA        FA
  0 C      6.2901     6.0000    -0.2901     3.7388     3.7388    -0.0000
  1 N      7.2480     7.0000    -0.2480     3.3880     3.3880    -0.0000
  2 H      0.7243     1.0000     0.2757     0.9231     0.9231    -0.0000
  3 H      0.6954     1.0000     0.3046     0.9243     0.9243    -0.0000
  4 H      0.7184     1.0000     0.2816     1.0101     1.0101     0.0000
  5 H      0.8432     1.0000     0.1568     0.9661     0.9661    -0.0000
  6 H      0.8243     1.0000     0.1757     0.9964     0.9964     0.0000
  7 H      0.8299     1.0000     0.1701     0.9986     0.9986    -0.0000
  8 Pb    21.1506    22.0000     0.8494     1.8536     1.8536     0.0000
  9 Cl    17.5562    17.0000    -0.5562     0.7671     0.7671     0.0000
 10 Cl    17.5512    17.0000    -0.5512     0.7389     0.7389     0.0000
 11 Cl    17.5686    17.0000    -0.5686     0.7240     0.7240    -0.0000

  Mayer bond orders larger than 0.1
B(  0-C ,  1-N ) :   0.8735 B(  0-C ,  5-H ) :   0.9761 B(  0-C ,  6-H ) :   0.9547 
B(  0-C ,  7-H ) :   0.9551 B(  1-N ,  2-H ) :   0.9087 B(  1-N ,  3-H ) :   0.8768 
B(  1-N ,  4-H ) :   0.7826 B(  4-H , 10-Cl) :   0.2289 B(  8-Pb,  9-Cl) :   0.7400 
B(  8-Pb, 10-Cl) :   0.4642 B(  8-Pb, 11-Cl) :   0.6432 

-------
TIMINGS
-------

Total SCF time: 0 days 0 hours 9 min 34 sec 

Total time                  ....     574.767 sec
Sum of individual times     ....     543.783 sec  ( 94.6%)

Fock matrix formation       ....     536.437 sec  ( 93.3%)
  Coulomb formation         ....     440.815 sec  ( 82.2% of F)
  Split-RI-J                ....      37.649 sec  (  7.0% of F)
  Chain of spheres X        ....     432.526 sec  ( 80.6% of F)
  COS-X 1 center corr.      ....       0.000 sec  (  0.0% of F)
  XC integration            ....      95.652 sec  ( 17.8% of F)
    Basis function eval.    ....      35.029 sec  ( 36.6% of XC)
    Density eval.           ....      22.236 sec  ( 23.2% of XC)
    XC-Functional eval.     ....       6.358 sec  (  6.6% of XC)
    XC-Potential eval.      ....      29.836 sec  ( 31.2% of XC)
Diagonalization             ....       1.107 sec  (  0.2%)
Density matrix formation    ....       0.081 sec  (  0.0%)
Population analysis         ....       0.075 sec  (  0.0%)
Initial guess               ....       0.144 sec  (  0.0%)
Orbital Transformation      ....       0.000 sec  (  0.0%)
Orbital Orthonormalization  ....       0.139 sec  (  0.0%)
DIIS solution               ....       0.358 sec  (  0.1%)
SOSCF solution              ....       0.161 sec  (  0.0%)
Grid generation             ....       5.421 sec  (  0.9%)

------------------------------------------------------------------------------
                              ORCA MP2 CALCULATION
------------------------------------------------------------------------------


----------------------
RI-MP2 ENERGY+GRADIENT
----------------------
Dimension of the basis                    ...  259
Memory devoted to MP2                     ... 1000 MB   
Data format for buffers                   ... DOUBLE
Compression type for matrix containers    ... UNCOMPRESSED
Overall scaling of the MP2 energy         ...   2.700e-01 Eh
Calculating two index integrals           ... done (    0.025 sec)
Cholesky decomposition of the V-matrix    ... done
Cholesky decomposition of V**-1           ... done (    0.039 sec)

-----------------
RI-TRANSFORMATION (AUX index driven)
-----------------

Dimension of the orbital-basis         ... 259
Dimension of the aux-basis             ... 493
Transformation of internal MOs         ...    0-  45
Transformation of internal/external MOs...    0-  45 to   46- 258
Number Format for Storage              ... Double (8 Byte)
Integral mode                          ... Direct

First Phase: integral generation and transformation of MO indices
  Aux angular momentum 0               ... done (    0.809 sec)
  Aux angular momentum 1               ... done (    0.601 sec)
  Aux angular momentum 2               ... done (    0.693 sec)
  Aux angular momentum 3               ... done (    0.351 sec)
  Aux angular momentum 4               ... done (    0.332 sec)
Closing buffer VIJ ( 0.00 GB; CompressionRatio= 1.95)
Closing buffer VIA ( 0.04 GB; CompressionRatio= 1.00)
  Phase 1 completed in     2.942 sec
Second Phase: sorting and transformation of aux index

IJ-Transformation
Memory available                       ... 990 MB 
Max. # MO pairs treated in a batch     ... 46    
# of internal orbitals                 ... 46
# batches for internal orbitals        ... 1
Closing buffer IJV ( 0.00 GB; CompressionRatio= 1.00)
(ij|v) transformation done in     0.175 sec

IA-Transformation
Memory available                       ... 990 MB 
Max. # MO pairs treated in a batch     ... 46    
# of internal orbitals                 ... 46
# batches for internal orbitals        ... 1
Closing buffer IAV ( 0.04 GB; CompressionRatio= 1.00)
(ia|v) transformation done in     0.666 sec

  Phase 2 completed in     0.872 sec
RI-Integral transformation completed in     3.815 sec
Opening buffers                              ... done

Starting loop over batches of integrals:

Operator 0  - window                       ... (  0- 45)x( 46-258)
Operator 0  - Memory available             ...  1000 MB
Operator 0  - Memory needed per MO         ...   1.6 MB
Operator 0  - Number of orbitals per batch ... 46
Operator 0  - Number of batches            ... 1

OPERATOR  0   PASS   0:  MOs     0 ...   45
  Reading integrals       ... ok
  Internal MO   2
  Internal MO   5
  Internal MO   8
  Internal MO  11
  Internal MO  14
  Internal MO  17
  Internal MO  20
  Internal MO  23
  Internal MO  26
  Internal MO  29
  Internal MO  32
  Internal MO  35
  Internal MO  38
  Internal MO  41
  Internal MO  44
Closing buffer GIPV ( 0.04 GB; CompressionRatio= 1.00)
Time spent in pair loops =    68.360 sec

-----------------------------------------------
 RI-MP2 CORRELATION ENERGY:     -0.582613054 Eh
-----------------------------------------------


---------------------
MP2 DENSITY FORMATION
---------------------

Completing the external part of the density      ... done
Storing the unrelaxed density                    ... done

Calculating the xc-kernel                        ... done
Calculating G(D)                                 ... done
Completing the Lagrangian                        ... done
Solving the Z-vector equations                   ... 

------------------------------------------------------------------------------
                           ORCA CP-SCF CALCULATION
------------------------------------------------------------------------------

Input orbitals are from        ... PbMACl3_mp2_md_17.orca.gbw
Input Perturbation             ... PbMACl3_mp2_md_17.orca.pin.tmp
Wavefunction output            ... PbMACl3_mp2_md_17.orca.pout.tmp
Perturbation mode              ... Real perturbation
Solver                         ... DIIS
   MaxDIIS                     ... 20
   Levelshift                  ...    3.000e-01 Eh
Max. number of iterations      ... 128
Convergence tolerance          ... 1.000e-08
Integral handling              ... Direct
COSX GridX                     ... 1
Number of perturbations        ... 1
Number of operators            ... 1
Orbital ranges used for CP-SCF:
 Operator 0:  Orbitals   0... 45  to  46...258
DFT calculation                         ... on
Exchange functional (SCF)               ... B88
Exchange functional (CP-SCF)            ... B88
   X-Alpha parameter    XAlpha (SCF)    ...  0.666667
   X-Alpha parameter    XAlpha (CP-SCF) ...  0.666667
   Becke's b parameter  XBeta (SCF)     ...  0.004200
   Becke's b parameter  XBeta (CP-SCF)  ...  0.004200
Correlation functional (SCF)            ... LYP
Correlation functional (CP-SCF)         ... LYP
 LDA part of GGA corr.  LDAOpt (SCF)    ... VWN-3
 LDA part of GGA corr.  LDAOpt (CP-SCF) ... VWN-3
Hybrid DFT                              ... on
   Exchange mixing (SCF)                ...  0.530
   Exchange mixing (CP-SCF)             ...  0.530
   GGA exch. scaling(SCF)               ...  0.470
   GGA exch. scaling (CP-SCF)           ...  0.470
   GGA corr. scaling (SCF)              ...  0.730
   GGA corr. scaling (CP-SCF)           ...  0.730
The RIJCOSX approximation is active
Variables per vector in CP-SCF ... 9798
Number of vectors sought       ... 1
Calculating the xc-kernel      ... done

Solving the CP-SCF equations by a DIIS algorithm

-----------------
CP-SCF ITERATIONS
-----------------
  Iteration   0: MaxR=  0.078568572
  Iteration   1: MaxR=  0.032815832
  Iteration   2: MaxR=  0.009819501
  Iteration   3: MaxR=  0.004424215
  Iteration   4: MaxR=  0.002789282
  Iteration   5: MaxR=  0.001551811
  Iteration   6: MaxR=  0.000907028
  Iteration   7: MaxR=  0.000357435
  Iteration   8: MaxR=  0.000169578
  Iteration   9: MaxR=  0.000070069
  Iteration  10: MaxR=  0.000031879
  Iteration  11: MaxR=  0.000013110
  Iteration  12: MaxR=  0.000005924
  Iteration  13: MaxR=  0.000002293
  Iteration  14: MaxR=  0.000000868
  Iteration  15: MaxR=  0.000000372
  Iteration  16: MaxR=  0.000000133
  Iteration  17: MaxR=  0.000000053
  Iteration  18: MaxR=  0.000000022
  Iteration  19: MaxR=  0.000000009
                              *** THE CP-SCF HAS CONVERGED *** 
done
Finalizing the relaxed density                   ... done
Transforming P to the AO basis                   ... done
Storing the relaxed density                      ... done

------------------------------------
ENERGY WEIGHTED DENSITY FINALIZATION
------------------------------------

Gathering the parts of the W-matrix              ... done
Forming the Z-density                            ... done
Transforming Z to the AO basis                   ... done
Calculating G(Z)                                 ... done
Finalizing the W-matrix                          ... done
Transforming W to the AO basis and storing       ... done
Entering the RIJONX and RIJCOSX sections
Starting the three-index derivative integrals:
Operator 0  - Memory available             ...  1000 MB
Operator 0  - Memory needed per MO         ...   1.0 MB
Operator 0  - Number of orbitals per batch ... 46
Operator 0  - Number of batches            ... 1

OPERATOR  0   PASS   0:  MOs     0 ...   45

----------------------------------
MP2 DERIVATIVE INTEGRAL GENERATION
----------------------------------


Input Correlated Electron Density   ... PbMACl3_mp2_md_17.orca.pmp2re
Input Energy Weighted Density       ... PbMACl3_mp2_md_17.orca.wmp2.tmp
Input SCF Electron Density          ... PbMACl3_mp2_md_17.orca.scfp.tmp

One-Electron Terms    ...
  ECP gradient                                           ... One-Electron Terms done

-----------------------------------------------------------
MP2 COSX Grid Generation
-----------------------------------------------------------

General Integration Accuracy     IntAcc      ...  4.340
Radial Grid Type                 RadialGrid  ... Gauss-Chebyshev
Angular Grid (max. acc.)         AngularGrid ... Lebedev-302
Angular grid pruning method      GridPruning ... 3 (G Style)
Weight generation scheme         WeightScheme... Becke
Basis function cutoff            BFCut       ...    1.0000e-11
Integration weight cutoff        WCut        ...    1.0000e-14
Grids for H and He will be reduced by one unit

# of grid points (after initial pruning)     ...  57718 (   0.0 sec)
# of grid points (after weights+screening)   ...  54394 (   0.2 sec)
nearest neighbour list constructed           ...    0.0 sec
Grid point re-assignment to atoms done       ...    0.0 sec
Grid point division into batches done        ...    0.3 sec
Reduced shell lists constructed in    1.7 sec

Total number of grid points                  ...    54394
Total number of batches                      ...      856
Average number of points per batch           ...       63
Average number of grid points per atom       ...     4533
Average number of shells per batch           ...    54.29 (53.75%)
Average number of basis functions per batch  ...   142.93 (55.19%)
Average number of large shells per batch     ...    41.11 (75.73%)
Average number of large basis fcns per batch ...   106.83 (74.74%)
Maximum spatial batch extension              ...  47.00, 25.69, 43.23 au
Average spatial batch extension              ...   3.32,  2.87,  3.24 au

Overlap Fitting                  UseSFitting ... on
Two electron COSX terms .... 
Integration Timings:
Total Time                  =   122.4 sec
Basis fcn evaluation        =     0.6 sec
Density evaluation          =     1.4 sec
Integral evaluation         =   117.3 sec
K(P) evaluation             =     1.2 sec
                          .... COSX two electron terms done
COSX two-electron contribution to the gradient
     0:    -0.043920    -0.012186     0.006337
     1:     0.050782    -0.043908     0.059989
     2:    -0.004945     0.208328    -0.068878
     3:    -0.161832    -0.063206     0.134100
     4:     0.011864    -0.083380    -0.147392
     5:     0.076883     0.129640     0.073602
     6:     0.090665     0.015313    -0.140920
     7:    -0.023448    -0.138176     0.095385
     8:    -0.004234     0.035737    -0.006037
     9:     0.034682    -0.059596    -0.019317
    10:     0.010956     0.015250    -0.031902
    11:    -0.037447    -0.004781     0.045253
Exchange-correlation gradient    ... done
Dispersion correction            ... 
Entering the calculation of the dispersion correction...

Checking the input atom types...

Done
done

                *********************************************
                * UNRELAXED MP2 DENSITY POPULATION ANALYSIS *
                *********************************************

------------------------------------------------------------------------------
                           ORCA POPULATION ANALYSIS
------------------------------------------------------------------------------
Input electron density              ... PbMACl3_mp2_md_17.orca.pmp2ur
BaseName (.gbw .S,...)              ... PbMACl3_mp2_md_17.orca

                    ********************************
                    * MULLIKEN POPULATION ANALYSIS *
                    ********************************

-----------------------
MULLIKEN ATOMIC CHARGES
-----------------------
   0 C :   -0.294221
   1 N :   -0.247362
   2 H :    0.275932
   3 H :    0.304541
   4 H :    0.280118
   5 H :    0.157810
   6 H :    0.176289
   7 H :    0.170648
   8 Pb:    0.832856
   9 Cl:   -0.548985
  10 Cl:   -0.545344
  11 Cl:   -0.562281
Sum of atomic charges:    0.0000000

--------------------------------
MULLIKEN REDUCED ORBITAL CHARGES
--------------------------------
  0 C s       :     3.283485  s :     3.283485
      pz      :     1.077240  p :     2.926255
      px      :     0.740675
      py      :     1.108340
      dz2     :     0.011664  d :     0.076316
      dxz     :     0.019246
      dyz     :     0.014512
      dx2y2   :     0.017645
      dxy     :     0.013249
      f0      :     0.000772  f :     0.008166
      f+1     :     0.001652
      f-1     :     0.000244
      f+2     :     0.002014
      f-2     :     0.000893
      f+3     :     0.001426
      f-3     :     0.001165
  1 N s       :     3.400396  s :     3.400396
      pz      :     1.301323  p :     3.782171
      px      :     1.222309
      py      :     1.258538
      dz2     :     0.009399  d :     0.060987
      dxz     :     0.015901
      dyz     :     0.009844
      dx2y2   :     0.014548
      dxy     :     0.011294
      f0      :     0.000340  f :     0.003809
      f+1     :     0.000569
      f-1     :     0.000414
      f+2     :     0.000948
      f-2     :     0.000457
      f+3     :     0.000361
      f-3     :     0.000721
  2 H s       :     0.686945  s :     0.686945
      pz      :     0.009162  p :     0.037123
      px      :     0.006825
      py      :     0.021136
  3 H s       :     0.660351  s :     0.660351
      pz      :     0.011942  p :     0.035108
      px      :     0.015325
      py      :     0.007840
  4 H s       :     0.676241  s :     0.676241
      pz      :     0.023399  p :     0.043640
      px      :     0.007208
      py      :     0.013033
  5 H s       :     0.818762  s :     0.818762
      pz      :     0.007440  p :     0.023428
      px      :     0.005836
      py      :     0.010152
  6 H s       :     0.797688  s :     0.797688
      pz      :     0.013133  p :     0.026023
      px      :     0.007914
      py      :     0.004976
  7 H s       :     0.805404  s :     0.805404
      pz      :     0.007695  p :     0.023949
      px      :     0.003686
      py      :     0.012568
  8 Pbs       :     3.974719  s :     3.974719
      pz      :     2.302579  p :     6.915896
      px      :     2.285895
      py      :     2.327422
      dz2     :     2.026755  d :    10.155934
      dxz     :     2.035113
      dyz     :     2.030302
      dx2y2   :     2.032062
      dxy     :     2.031703
      f0      :     0.017347  f :     0.120595
      f+1     :     0.015581
      f-1     :     0.017437
      f+2     :     0.020502
      f-2     :     0.015575
      f+3     :     0.018500
      f-3     :     0.015654
  9 Cls       :     5.945140  s :     5.945140
      pz      :     3.880961  p :    11.542145
      px      :     3.866812
      py      :     3.794372
      dz2     :     0.010428  d :     0.058076
      dxz     :     0.009035
      dyz     :     0.011301
      dx2y2   :     0.011908
      dxy     :     0.015404
      f0      :     0.000471  f :     0.003624
      f+1     :     0.000426
      f-1     :     0.000513
      f+2     :     0.000448
      f-2     :     0.000534
      f+3     :     0.000673
      f-3     :     0.000559
 10 Cls       :     5.943332  s :     5.943332
      pz      :     3.851694  p :    11.529730
      px      :     3.880590
      py      :     3.797446
      dz2     :     0.012367  d :     0.068232
      dxz     :     0.011515
      dyz     :     0.017824
      dx2y2   :     0.014856
      dxy     :     0.011670
      f0      :     0.000535  f :     0.004050
      f+1     :     0.000443
      f-1     :     0.000601
      f+2     :     0.000709
      f-2     :     0.000588
      f+3     :     0.000584
      f-3     :     0.000590
 11 Cls       :     5.940231  s :     5.940231
      pz      :     3.829651  p :    11.555747
      px      :     3.828413
      py      :     3.897682
      dz2     :     0.015215  d :     0.062409
      dxz     :     0.017366
      dyz     :     0.010527
      dx2y2   :     0.009997
      dxy     :     0.009303
      f0      :     0.000599  f :     0.003894
      f+1     :     0.000861
      f-1     :     0.000485
      f+2     :     0.000610
      f-2     :     0.000531
      f+3     :     0.000406
      f-3     :     0.000401


                     *******************************
                     * LOEWDIN POPULATION ANALYSIS *
                     *******************************

----------------------
LOEWDIN ATOMIC CHARGES
----------------------
   0 C :   -0.294189
   1 N :    0.150664
   2 H :    0.190944
   3 H :    0.201270
   4 H :    0.167974
   5 H :    0.117984
   6 H :    0.113881
   7 H :    0.132262
   8 Pb:   -0.227273
   9 Cl:   -0.223461
  10 Cl:   -0.137432
  11 Cl:   -0.192623

-------------------------------
LOEWDIN REDUCED ORBITAL CHARGES
-------------------------------
  0 C s       :     2.830249  s :     2.830249
      pz      :     1.098308  p :     3.085666
      px      :     0.890189
      py      :     1.097169
      dz2     :     0.034940  d :     0.330842
      dxz     :     0.098101
      dyz     :     0.055651
      dx2y2   :     0.082339
      dxy     :     0.059812
      f0      :     0.005515  f :     0.047432
      f+1     :     0.011602
      f-1     :     0.000895
      f+2     :     0.007735
      f-2     :     0.003839
      f+3     :     0.009134
      f-3     :     0.008712
  1 N s       :     2.953050  s :     2.953050
      pz      :     1.239434  p :     3.690019
      px      :     1.234618
      py      :     1.215967
      dz2     :     0.028751  d :     0.192096
      dxz     :     0.049441
      dyz     :     0.028477
      dx2y2   :     0.050868
      dxy     :     0.034559
      f0      :     0.001431  f :     0.014171
      f+1     :     0.002600
      f-1     :     0.001585
      f+2     :     0.001749
      f-2     :     0.001790
      f+3     :     0.001563
      f-3     :     0.003453
  2 H s       :     0.698056  s :     0.698056
      pz      :     0.027683  p :     0.111001
      px      :     0.021867
      py      :     0.061451
  3 H s       :     0.692368  s :     0.692368
      pz      :     0.038769  p :     0.106363
      px      :     0.043950
      py      :     0.023643
  4 H s       :     0.696495  s :     0.696495
      pz      :     0.074296  p :     0.135532
      px      :     0.021355
      py      :     0.039881
  5 H s       :     0.814197  s :     0.814197
      pz      :     0.022396  p :     0.067820
      px      :     0.015622
      py      :     0.029802
  6 H s       :     0.809050  s :     0.809050
      pz      :     0.039623  p :     0.077069
      px      :     0.021027
      py      :     0.016419
  7 H s       :     0.800110  s :     0.800110
      pz      :     0.021886  p :     0.067628
      px      :     0.010924
      py      :     0.034818
  8 Pbs       :     3.684954  s :     3.684954
      pz      :     2.475442  p :     7.426905
      px      :     2.407605
      py      :     2.543857
      dz2     :     2.134286  d :    10.794481
      dxz     :     2.174299
      dyz     :     2.172509
      dx2y2   :     2.160887
      dxy     :     2.152501
      f0      :     0.044781  f :     0.320933
      f+1     :     0.047906
      f-1     :     0.039499
      f+2     :     0.065475
      f-2     :     0.035476
      f+3     :     0.051828
      f-3     :     0.035968
  9 Cls       :     5.739065  s :     5.739065
      pz      :     3.826923  p :    11.397965
      px      :     3.814395
      py      :     3.756647
      dz2     :     0.014916  d :     0.081161
      dxz     :     0.009935
      dyz     :     0.013027
      dx2y2   :     0.013834
      dxy     :     0.029450
      f0      :     0.000629  f :     0.005270
      f+1     :     0.000529
      f-1     :     0.000743
      f+2     :     0.000492
      f-2     :     0.000768
      f+3     :     0.001535
      f-3     :     0.000574
 10 Cls       :     5.691157  s :     5.691157
      pz      :     3.773521  p :    11.329670
      px      :     3.816602
      py      :     3.739547
      dz2     :     0.013894  d :     0.109585
      dxz     :     0.012897
      dyz     :     0.036739
      dx2y2   :     0.029453
      dxy     :     0.016602
      f0      :     0.001074  f :     0.007021
      f+1     :     0.000481
      f-1     :     0.000734
      f+2     :     0.001746
      f-2     :     0.000986
      f+3     :     0.000910
      f-3     :     0.001091
 11 Cls       :     5.711214  s :     5.711214
      pz      :     3.781370  p :    11.380700
      px      :     3.771617
      py      :     3.827714
      dz2     :     0.025691  d :     0.094348
      dxz     :     0.036724
      dyz     :     0.010824
      dx2y2   :     0.011775
      dxy     :     0.009335
      f0      :     0.000752  f :     0.006361
      f+1     :     0.002469
      f-1     :     0.000537
      f+2     :     0.001150
      f-2     :     0.000590
      f+3     :     0.000450
      f-3     :     0.000413


                      *****************************
                      * MAYER POPULATION ANALYSIS *
                      *****************************

  NA   - Mulliken gross atomic population
  ZA   - Total nuclear charge
  QA   - Mulliken gross atomic charge
  VA   - Mayer's total valence
  BVA  - Mayer's bonded valence
  FA   - Mayer's free valence

  ATOM       NA         ZA         QA         VA         BVA        FA
  0 C      6.2942     6.0000    -0.2942     3.7859     3.6754     0.1105
  1 N      7.2474     7.0000    -0.2474     3.4566     3.3255     0.1311
  2 H      0.7241     1.0000     0.2759     0.9250     0.9081     0.0169
  3 H      0.6955     1.0000     0.3045     0.9262     0.9092     0.0170
  4 H      0.7199     1.0000     0.2801     1.0127     0.9915     0.0212
  5 H      0.8422     1.0000     0.1578     0.9688     0.9509     0.0179
  6 H      0.8237     1.0000     0.1763     0.9991     0.9806     0.0186
  7 H      0.8294     1.0000     0.1706     1.0014     0.9825     0.0189
  8 Pb    21.1671    22.0000     0.8329     2.1851     1.7989     0.3862
  9 Cl    17.5490    17.0000    -0.5490     1.0079     0.7429     0.2650
 10 Cl    17.5453    17.0000    -0.5453     0.9805     0.7173     0.2632
 11 Cl    17.5623    17.0000    -0.5623     0.9656     0.7019     0.2637

  Mayer bond orders larger than 0.1
B(  0-C ,  1-N ) :   0.8535 B(  0-C ,  5-H ) :   0.9615 B(  0-C ,  6-H ) :   0.9405 
B(  0-C ,  7-H ) :   0.9405 B(  1-N ,  2-H ) :   0.8944 B(  1-N ,  3-H ) :   0.8631 
B(  1-N ,  4-H ) :   0.7690 B(  4-H , 10-Cl) :   0.2242 B(  8-Pb,  9-Cl) :   0.7179 
B(  8-Pb, 10-Cl) :   0.4506 B(  8-Pb, 11-Cl) :   0.6243 


                *******************************************
                * RELAXED MP2 DENSITY POPULATION ANALYSIS *
                *******************************************

------------------------------------------------------------------------------
                           ORCA POPULATION ANALYSIS
------------------------------------------------------------------------------
Input electron density              ... PbMACl3_mp2_md_17.orca.pmp2re
BaseName (.gbw .S,...)              ... PbMACl3_mp2_md_17.orca

                    ********************************
                    * MULLIKEN POPULATION ANALYSIS *
                    ********************************

-----------------------
MULLIKEN ATOMIC CHARGES
-----------------------
   0 C :   -0.308957
   1 N :   -0.245774
   2 H :    0.276297
   3 H :    0.302763
   4 H :    0.272586
   5 H :    0.161572
   6 H :    0.176088
   7 H :    0.173088
   8 Pb:    0.769857
   9 Cl:   -0.521344
  10 Cl:   -0.518896
  11 Cl:   -0.537281
Sum of atomic charges:   -0.0000000

--------------------------------
MULLIKEN REDUCED ORBITAL CHARGES
--------------------------------
  0 C s       :     3.285284  s :     3.285284
      pz      :     1.081560  p :     2.943388
      px      :     0.747465
      py      :     1.114363
      dz2     :     0.011378  d :     0.072292
      dxz     :     0.017977
      dyz     :     0.013382
      dx2y2   :     0.016440
      dxy     :     0.013115
      f0      :     0.000751  f :     0.007992
      f+1     :     0.001606
      f-1     :     0.000244
      f+2     :     0.001976
      f-2     :     0.000884
      f+3     :     0.001391
      f-3     :     0.001141
  1 N s       :     3.401218  s :     3.401218
      pz      :     1.302207  p :     3.781351
      px      :     1.219456
      py      :     1.259688
      dz2     :     0.009240  d :     0.059461
      dxz     :     0.015520
      dyz     :     0.009501
      dx2y2   :     0.013803
      dxy     :     0.011397
      f0      :     0.000331  f :     0.003743
      f+1     :     0.000568
      f-1     :     0.000405
      f+2     :     0.000920
      f-2     :     0.000453
      f+3     :     0.000353
      f-3     :     0.000714
  2 H s       :     0.687007  s :     0.687007
      pz      :     0.009174  p :     0.036696
      px      :     0.006908
      py      :     0.020614
  3 H s       :     0.662559  s :     0.662559
      pz      :     0.011812  p :     0.034679
      px      :     0.014997
      py      :     0.007870
  4 H s       :     0.684165  s :     0.684165
      pz      :     0.022971  p :     0.043249
      px      :     0.007300
      py      :     0.012977
  5 H s       :     0.815345  s :     0.815345
      pz      :     0.007395  p :     0.023082
      px      :     0.005811
      py      :     0.009876
  6 H s       :     0.798235  s :     0.798235
      pz      :     0.012792  p :     0.025678
      px      :     0.007811
      py      :     0.005075
  7 H s       :     0.803318  s :     0.803318
      pz      :     0.007569  p :     0.023593
      px      :     0.003761
      py      :     0.012263
  8 Pbs       :     3.974088  s :     3.974088
      pz      :     2.324562  p :     6.984441
      px      :     2.308717
      py      :     2.351162
      dz2     :     2.026347  d :    10.153666
      dxz     :     2.033538
      dyz     :     2.031117
      dx2y2   :     2.031741
      dxy     :     2.030923
      f0      :     0.016974  f :     0.117949
      f+1     :     0.015085
      f-1     :     0.017211
      f+2     :     0.019951
      f-2     :     0.015370
      f+3     :     0.017988
      f-3     :     0.015371
  9 Cls       :     5.946140  s :     5.946140
      pz      :     3.872624  p :    11.513410
      px      :     3.855298
      py      :     3.785487
      dz2     :     0.010466  d :     0.058159
      dxz     :     0.009050
      dyz     :     0.011237
      dx2y2   :     0.011879
      dxy     :     0.015528
      f0      :     0.000472  f :     0.003635
      f+1     :     0.000427
      f-1     :     0.000515
      f+2     :     0.000449
      f-2     :     0.000536
      f+3     :     0.000671
      f-3     :     0.000565
 10 Cls       :     5.943719  s :     5.943719
      pz      :     3.843401  p :    11.502231
      px      :     3.871991
      py      :     3.786839
      dz2     :     0.012391  d :     0.068876
      dxz     :     0.011552
      dyz     :     0.018043
      dx2y2   :     0.015045
      dxy     :     0.011845
      f0      :     0.000535  f :     0.004070
      f+1     :     0.000445
      f-1     :     0.000610
      f+2     :     0.000707
      f-2     :     0.000594
      f+3     :     0.000587
      f-3     :     0.000592
 11 Cls       :     5.940884  s :     5.940884
      pz      :     3.819851  p :    11.529871
      px      :     3.819992
      py      :     3.890027
      dz2     :     0.015325  d :     0.062621
      dxz     :     0.017458
      dyz     :     0.010571
      dx2y2   :     0.009958
      dxy     :     0.009309
      f0      :     0.000605  f :     0.003905
      f+1     :     0.000856
      f-1     :     0.000489
      f+2     :     0.000610
      f-2     :     0.000536
      f+3     :     0.000407
      f-3     :     0.000402


                     *******************************
                     * LOEWDIN POPULATION ANALYSIS *
                     *******************************

----------------------
LOEWDIN ATOMIC CHARGES
----------------------
   0 C :   -0.303249
   1 N :    0.146779
   2 H :    0.191541
   3 H :    0.201188
   4 H :    0.165696
   5 H :    0.119911
   6 H :    0.114864
   7 H :    0.134070
   8 Pb:   -0.264273
   9 Cl:   -0.204580
  10 Cl:   -0.123949
  11 Cl:   -0.177997

-------------------------------
LOEWDIN REDUCED ORBITAL CHARGES
-------------------------------
  0 C s       :     2.831799  s :     2.831799
      pz      :     1.101842  p :     3.098102
      px      :     0.894884
      py      :     1.101376
      dz2     :     0.034596  d :     0.326192
      dxz     :     0.096903
      dyz     :     0.054500
      dx2y2   :     0.080637
      dxy     :     0.059556
      f0      :     0.005495  f :     0.047157
      f+1     :     0.011542
      f-1     :     0.000899
      f+2     :     0.007657
      f-2     :     0.003818
      f+3     :     0.009075
      f-3     :     0.008670
  1 N s       :     2.954217  s :     2.954217
      pz      :     1.241066  p :     3.692927
      px      :     1.233831
      py      :     1.218029
      dz2     :     0.028910  d :     0.191851
      dxz     :     0.049320
      dyz     :     0.028325
      dx2y2   :     0.050465
      dxy     :     0.034830
      f0      :     0.001434  f :     0.014227
      f+1     :     0.002616
      f-1     :     0.001598
      f+2     :     0.001746
      f-2     :     0.001793
      f+3     :     0.001571
      f-3     :     0.003467
  2 H s       :     0.697682  s :     0.697682
      pz      :     0.027711  p :     0.110776
      px      :     0.021981
      py      :     0.061084
  3 H s       :     0.692729  s :     0.692729
      pz      :     0.038720  p :     0.106082
      px      :     0.043660
      py      :     0.023702
  4 H s       :     0.698675  s :     0.698675
      pz      :     0.074241  p :     0.135630
      px      :     0.021423
      py      :     0.039966
  5 H s       :     0.812041  s :     0.812041
      pz      :     0.022528  p :     0.068048
      px      :     0.015749
      py      :     0.029770
  6 H s       :     0.807796  s :     0.807796
      pz      :     0.039572  p :     0.077340
      px      :     0.021116
      py      :     0.016653
  7 H s       :     0.798100  s :     0.798100
      pz      :     0.021925  p :     0.067830
      px      :     0.011104
      py      :     0.034801
  8 Pbs       :     3.688390  s :     3.688390
      pz      :     2.490818  p :     7.475184
      px      :     2.425321
      py      :     2.559045
      dz2     :     2.132741  d :    10.784404
      dxz     :     2.170524
      dyz     :     2.171505
      dx2y2   :     2.159041
      dxy     :     2.150593
      f0      :     0.044227  f :     0.316296
      f+1     :     0.047154
      f-1     :     0.039026
      f+2     :     0.064451
      f-2     :     0.034903
      f+3     :     0.051135
      f-3     :     0.035400
  9 Cls       :     5.742011  s :     5.742011
      pz      :     3.820208  p :    11.375252
      px      :     3.804767
      py      :     3.750278
      dz2     :     0.015021  d :     0.081980
      dxz     :     0.010022
      dyz     :     0.013143
      dx2y2   :     0.014032
      dxy     :     0.029762
      f0      :     0.000637  f :     0.005337
      f+1     :     0.000531
      f-1     :     0.000751
      f+2     :     0.000496
      f-2     :     0.000782
      f+3     :     0.001556
      f-3     :     0.000584
 10 Cls       :     5.694248  s :     5.694248
      pz      :     3.768097  p :    11.311490
      px      :     3.810764
      py      :     3.732629
      dz2     :     0.013999  d :     0.111085
      dxz     :     0.013049
      dyz     :     0.037323
      dx2y2   :     0.029891
      dxy     :     0.016823
      f0      :     0.001085  f :     0.007126
      f+1     :     0.000483
      f-1     :     0.000756
      f+2     :     0.001774
      f-2     :     0.001002
      f+3     :     0.000917
      f-3     :     0.001109
 11 Cls       :     5.714162  s :     5.714162
      pz      :     3.774220  p :    11.361864
      px      :     3.765401
      py      :     3.822242
      dz2     :     0.025875  d :     0.095518
      dxz     :     0.037376
      dyz     :     0.011013
      dx2y2   :     0.011842
      dxy     :     0.009411
      f0      :     0.000762  f :     0.006453
      f+1     :     0.002502
      f-1     :     0.000547
      f+2     :     0.001172
      f-2     :     0.000603
      f+3     :     0.000453
      f-3     :     0.000415


                      *****************************
                      * MAYER POPULATION ANALYSIS *
                      *****************************

  NA   - Mulliken gross atomic population
  ZA   - Total nuclear charge
  QA   - Mulliken gross atomic charge
  VA   - Mayer's total valence
  BVA  - Mayer's bonded valence
  FA   - Mayer's free valence

  ATOM       NA         ZA         QA         VA         BVA        FA
  0 C      6.3090     6.0000    -0.3090     3.7818     3.6716     0.1103
  1 N      7.2458     7.0000    -0.2458     3.4604     3.3296     0.1309
  2 H      0.7237     1.0000     0.2763     0.9246     0.9079     0.0168
  3 H      0.6972     1.0000     0.3028     0.9292     0.9123     0.0169
  4 H      0.7274     1.0000     0.2726     1.0211     1.0001     0.0210
  5 H      0.8384     1.0000     0.1616     0.9674     0.9496     0.0179
  6 H      0.8239     1.0000     0.1761     1.0045     0.9860     0.0185
  7 H      0.8269     1.0000     0.1731     1.0037     0.9849     0.0188
  8 Pb    21.2301    22.0000     0.7699     2.2901     1.9086     0.3815
  9 Cl    17.5213    17.0000    -0.5213     1.0588     0.7957     0.2631
 10 Cl    17.5189    17.0000    -0.5189     1.0330     0.7712     0.2618
 11 Cl    17.5373    17.0000    -0.5373     1.0128     0.7506     0.2622

  Mayer bond orders larger than 0.1
B(  0-C ,  1-N ) :   0.8631 B(  0-C ,  5-H ) :   0.9583 B(  0-C ,  6-H ) :   0.9370 
B(  0-C ,  7-H ) :   0.9368 B(  1-N ,  2-H ) :   0.8927 B(  1-N ,  3-H ) :   0.8615 
B(  1-N ,  4-H ) :   0.7632 B(  4-H , 10-Cl) :   0.2379 B(  8-Pb,  9-Cl) :   0.7632 
B(  8-Pb, 10-Cl) :   0.4764 B(  8-Pb, 11-Cl) :   0.6598 


-------
TIMINGS
-------

Total time                :  772.277 sec
Integral trafo            :    3.830 sec (  0.5%)
I/O of integrals          :    0.435 sec (  0.1%)
K(i,j) Operators          :   10.606 sec (  1.4%)
T(i,j) pair energies      :    2.156 sec (  0.3%)
V-calculation             :    0.025 sec (  0.0%)
V**(-1/2)                 :    0.039 sec (  0.0%)
Gamma(ia|P)               :    9.677 sec (  1.3%)
Gamma-Trafo               :    1.312 sec (  0.2%)
D(virtual)                :    4.154 sec (  0.5%)
D(internal)               :    6.955 sec (  0.9%)
W(virtual)                :    8.165 sec (  1.1%)
W(internal)               :   16.034 sec (  2.1%)
L(virtual)                :    8.008 sec (  1.0%)
L(internal)               :    0.515 sec (  0.1%)
G(D)                      :   19.420 sec (  2.5%)
G(Z)                      :   17.926 sec (  2.3%)
Z-Vector Solution         :  512.243 sec ( 66.3%)
Z-Vector Solution         :  512.243 sec ( 66.3%)
3-Index Derivative 
+ Separable RIJ part      :    6.604 sec (  0.9%)
2-Index Derivative 
+ Separable RIJ part      :    0.046 sec (  0.0%)
Separable Gradient (COSX) :  141.027 sec ( 18.3%)


---------------------------------------
MP2 TOTAL ENERGY:    -1669.514588735 Eh
---------------------------------------

The final MP2 gradient
  0:  -0.00905892  -0.00009050  -0.03014495
  1:   0.01301898  -0.00027505   0.01592935
  2:   0.01609894  -0.02881566   0.00378820
  3:   0.00671521   0.00123679  -0.00133697
  4:   0.01396396   0.01487699   0.00934632
  5:   0.00495115  -0.00814210  -0.01856744
  6:  -0.02801317   0.02022263   0.01886922
  7:  -0.01998652   0.00677383   0.00032657
  8:   0.00535224   0.05779578   0.01965360
  9:  -0.02092229   0.02556147   0.00507733
 10:  -0.01395742  -0.07813401   0.03558759
 11:   0.03180330  -0.01193057  -0.05836686

-----------------------------------
NORM OF THE MP2 GRADIENT:  0.149999
-----------------------------------

Entering the calculation of the dispersion correction...

Checking the input atom types...

Done


-------------------------------------------------------------------------------
                          DFT DISPERSION CORRECTION                            
                                                                               
                                DFTD3 V2.1  Rev 6                               
                          USING Becke-Johnson damping                          
-------------------------------------------------------------------------------
The B2PLYP functional is recognized
Active option DFTDOPT                   ...         4   

molecular C6(AA) [au] = 4868.141445 


            DFT-D V3
 parameters
 s6 scaling factor         :     0.6400 
 a1 scaling factor         :     0.3065 
 s8 scaling factor         :     0.9147 
 a2 scaling factor         :     5.0570 
 ad hoc parameters k1-k3   :    16.0000     1.3333    -4.0000 

 Edisp/kcal,au: -7.981017026477  -0.012718558851 
 E6   /kcal   :  -3.636871910 
 E8   /kcal   :  -4.344145116 
 % E8         :  54.430971668 

-------------------------   ----------------
Dispersion correction           -0.012718559
-------------------------   ----------------


-------------------------   --------------------
FINAL SINGLE POINT ENERGY     -1669.527307293700
-------------------------   --------------------


                            ***************************************
                            *     ORCA property calculations      *
                            ***************************************


  WARNING: The energy has been calculated at the MP2 level but the densities
           used in the property calculations are still SCF densities
           MP2 response densities have not been calculated 
           use %mp2 Density relaxed end
           or  %mp2 Density unrelaxed end

                                    ---------------------
                                    Active property flags
                                    ---------------------
   (+) Dipole Moment


------------------------------------------------------------------------------
                       ORCA ELECTRIC PROPERTIES CALCULATION
------------------------------------------------------------------------------

Dipole Moment Calculation                       ... on
Quadrupole Moment Calculation                   ... off
Polarizability Calculation                      ... off
GBWName                                         ... PbMACl3_mp2_md_17.orca.gbw
Electron density file                           ... PbMACl3_mp2_md_17.orca.scfp.tmp

-------------
DIPOLE MOMENT
-------------
                                X             Y             Z
Electronic contribution:     -7.18702     -68.18449     -30.11972
Nuclear contribution   :      6.33414      73.71627      31.64643
                        -----------------------------------------
Total Dipole Moment    :     -0.85288       5.53178       1.52671
                        -----------------------------------------
Magnitude (a.u.)       :      5.80162
Magnitude (Debye)      :     14.74655


                         *** MP2 UNRELAXED DENSITY ***

------------------------------------------------------------------------------
                       ORCA ELECTRIC PROPERTIES CALCULATION
------------------------------------------------------------------------------

Dipole Moment Calculation                       ... on
Quadrupole Moment Calculation                   ... off
Polarizability Calculation                      ... off
GBWName                                         ... PbMACl3_mp2_md_17.orca.gbw
Electron density file                           ... PbMACl3_mp2_md_17.orca.pmp2ur

-------------
DIPOLE MOMENT
-------------
                                X             Y             Z
Electronic contribution:     -7.18375     -68.20452     -30.12417
Nuclear contribution   :      6.33414      73.71627      31.64643
                        -----------------------------------------
Total Dipole Moment    :     -0.84961       5.51175       1.52226
                        -----------------------------------------
Magnitude (a.u.)       :      5.78087
Magnitude (Debye)      :     14.69381


                           *** MP2 RELAXED DENSITY ***

------------------------------------------------------------------------------
                       ORCA ELECTRIC PROPERTIES CALCULATION
------------------------------------------------------------------------------

Dipole Moment Calculation                       ... on
Quadrupole Moment Calculation                   ... off
Polarizability Calculation                      ... off
GBWName                                         ... PbMACl3_mp2_md_17.orca.gbw
Electron density file                           ... PbMACl3_mp2_md_17.orca.pmp2re

-------------
DIPOLE MOMENT
-------------
                                X             Y             Z
Electronic contribution:     -7.18143     -68.29788     -30.15620
Nuclear contribution   :      6.33414      73.71627      31.64643
                        -----------------------------------------
Total Dipole Moment    :     -0.84729       5.41839       1.49023
                        -----------------------------------------
Magnitude (a.u.)       :      5.68310
Magnitude (Debye)      :     14.44530


Timings for individual modules:

Sum of individual times         ...     1356.648 sec (=  22.611 min)
GTO integral calculation        ...        4.311 sec (=   0.072 min)   0.3 %
SCF iterations                  ...      578.718 sec (=   9.645 min)  42.7 %
MP2 module                      ...      773.619 sec (=  12.894 min)  57.0 %
                             ****ORCA TERMINATED NORMALLY****
TOTAL RUN TIME: 0 days 0 hours 22 minutes 38 seconds 322 msec
