
                                 *****************
                                 * O   R   C   A *
                                 *****************

           --- An Ab Initio, DFT and Semiempirical electronic structure package ---

                  #######################################################
                  #                        -***-                        #
                  #  Department of molecular theory and spectroscopy    #
                  #              Directorship: Frank Neese              #
                  # Max Planck Institute for Chemical Energy Conversion #
                  #                  D-45470 Muelheim/Ruhr              #
                  #                       Germany                       #
                  #                                                     #
                  #                  All rights reserved                #
                  #                        -***-                        #
                  #######################################################


                         Program Version 3.0.3 - RELEASE   -


 With contributions from (in alphabetic order):
   Ute Becker             : Parallelization
   Dmytro Bykov           : SCF Hessian
   Dmitry Ganyushin       : Spin-Orbit,Spin-Spin,Magnetic field MRCI
   Andreas Hansen         : Spin unrestricted coupled pair/coupled cluster methods
   Dimitrios Liakos       : Extrapolation schemes; parallel MDCI
   Robert Izsak           : Overlap fitted RIJCOSX, COSX-SCS-MP3
   Christian Kollmar      : KDIIS, OOCD, Brueckner-CCSD(T), CCSD density
   Simone Kossmann        : Meta GGA functionals, TD-DFT gradient, OOMP2, MP2 Hessian
   Taras Petrenko         : DFT Hessian,TD-DFT gradient, ASA and ECA modules, normal mode analysis, Resonance Raman, ABS, FL, XAS/XES, NRVS
   Christoph Reimann      : Effective Core Potentials
   Michael Roemelt        : Restricted open shell CIS
   Christoph Riplinger    : Improved optimizer, TS searches, QM/MM, DLPNO-CCSD
   Barbara Sandhoefer     : DKH picture change effects
   Igor Schapiro          : Molecular dynamics
   Kantharuban Sivalingam : CASSCF convergence, NEVPT2
   Boris Wezisla          : Elementary symmetry handling
   Frank Wennmohs         : Technical directorship


 We gratefully acknowledge several colleagues who have allowed us to
 interface, adapt or use parts of their codes:
   Stefan Grimme, W. Hujo, H. Kruse, T. Risthaus : VdW corrections, initial TS optimization,
                                                   DFT functionals, gCP
   Ed Valeev                                     : LibInt (2-el integral package), F12 methods
   Garnet Chan, S. Sharma, R. Olivares           : DMRG
   Ulf Ekstrom                                   : XCFun DFT Library
   Mihaly Kallay                                 : mrcc  (arbitrary order and MRCC methods)
   Andreas Klamt, Michael Diedenhofen            : otool_cosmo (COSMO solvation model)
   Frank Weinhold                                : gennbo (NPA and NBO analysis)
   Christopher J. Cramer and Donald G. Truhlar   : smd solvation model


 Your calculation uses the libint2 library for the computation of 2-el integrals
 For citations please refer to: http://libint.valeyev.net

 This ORCA versions uses:
   CBLAS   interface :  Fast vector & matrix operations
   LAPACKE interface :  Fast linear algebra routines
   SCALAPACK package :  Parallel linear algebra routines


Your calculation utilizes the basis: Ahlrichs-TZV
Cite in your paper:
H - Kr: A. Schaefer, H. Horn and R. Ahlrichs, J. Chem. Phys. 97, 2571 (1992).

The def2-TZV basis will be loaded
Cite in your paper:
 	F. Weigend, R. Ahlrichs, Phys. Chem. Chem. Phys. 2005, 7, 3297.

Your calculation utilizes the atom-pairwise dispersion correction
with the Becke-Johnson damping scheme (D3BJ)
Cite in your paper:
S.Grimme, S.Ehrlich, L.Goerigk, J Comput Chem, (2011), 32, 1456–1465 
S.Grimme, J.Antony, S.Ehrlich and H.Krieg, J.Chem.Phys., 132, (2010), 154104 
   

================================================================================
                                        WARNINGS
                       Please study these warnings very carefully!
================================================================================

WARNING: The RI method has been chosen with no auxiliary basis (AUX or GTOAUX in BASIS block)
        Standard TZV/J expansion basis used (GTOAUX=TZV_J)

Now building the actual basis set
cite the ECPs for Pb [SD(60,MDF)] as follows:
  B. Metz, H. Stoll, M. Dolg, J. Chem. Phys. 113, 2563 (2000).

ECP parameters for Pb [SD(60,MDF)] have been obtained from:
  pseudopotential library of the Stuttgart/Cologne group
  http://www.theochem.uni-stuttgart.de/pseudopotentials/

cite the ECP basis sets for Pb [DEF2-TZVP] as follows:
  F. Weigend, R. Ahlrichs; Phys. Chem. Chem. Phys. 7, 3297(2005).

ECP basis sets for Pb [DEF2-TZVP] have been obtained from:
  Turbomole basis set library
  ftp://ftp.chemie.uni-karlsruhe.de/pub/basen/



INFO   : the flag for use of LIBINT has been found!

================================================================================
                                       INPUT FILE
================================================================================
NAME = PbCl6_MA2_mp2_sp_9.orca
|  1> ! RIJCOSX RI-B2PLYP D3BJ def2-TZVP ECP{def2-TZVP} TIGHTSCF Grid5 FinalGrid6 MORead
|  2> %method
|  3>  RunTyp Gradient
|  4>  end
|  5> %maxcore 1000
|  6> %moinp "previous.gbw"
|  7> *xyz 0 1
|  8> C 2.891451 3.575826 2.778059 
|  9> N 2.089424 2.555032 2.059582 
| 10> H 3.558472 3.076137 3.484362 
| 11> H 2.218727 4.247132 3.316750 
| 12> H 3.479382 4.144646 2.054078 
| 13> H 1.492676 1.958835 2.673590 
| 14> H 2.651801 1.866309 1.511973 
| 15> H 1.418732 2.942131 1.359080 
| 16> Pb 0.145418 0.076194 0.263922 
| 17> Cl 2.738825 0.241879 0.312090 
| 18> Cl -0.045403 2.696099 -0.044826 
| 19> Cl 0.216237 0.348070 2.975488 
| 20> Cl -2.389251 -0.120230 0.397831 
| 21> Cl 0.165132 -0.364384 -2.371747 
| 22> Cl 0.277671 -2.461393 0.704528 
| 23> N -1.944119 -2.595072 -1.633806 
| 24> C -2.725500 -3.643046 -2.335777 
| 25> H -2.519034 -1.905375 -1.102173 
| 26> H -1.352579 -2.002501 -2.255638 
| 27> H -3.308461 -4.206070 -1.603344 
| 28> H -2.038395 -4.314606 -2.855607 
| 29> H -3.396098 -3.169682 -3.056568 
| 30> H -1.270867 -2.959590 -0.921865 
| 31> *
| 32> 
| 33>                          ****END OF INPUT****
================================================================================

                     *******************************
                     * Energy+Gradient Calculation *
                     *******************************

---------------------------------
CARTESIAN COORDINATES (ANGSTROEM)
---------------------------------
  C      2.891451    3.575826    2.778059
  N      2.089424    2.555032    2.059582
  H      3.558472    3.076137    3.484362
  H      2.218727    4.247132    3.316750
  H      3.479382    4.144646    2.054078
  H      1.492676    1.958835    2.673590
  H      2.651801    1.866309    1.511973
  H      1.418732    2.942131    1.359080
  Pb     0.145418    0.076194    0.263922
  Cl     2.738825    0.241879    0.312090
  Cl    -0.045403    2.696099   -0.044826
  Cl     0.216237    0.348070    2.975488
  Cl    -2.389251   -0.120230    0.397831
  Cl     0.165132   -0.364384   -2.371747
  Cl     0.277671   -2.461393    0.704528
  N     -1.944119   -2.595072   -1.633806
  C     -2.725500   -3.643046   -2.335777
  H     -2.519034   -1.905375   -1.102173
  H     -1.352579   -2.002501   -2.255638
  H     -3.308461   -4.206070   -1.603344
  H     -2.038395   -4.314606   -2.855607
  H     -3.396098   -3.169682   -3.056568
  H     -1.270867   -2.959590   -0.921865

----------------------------
CARTESIAN COORDINATES (A.U.)
----------------------------
  NO LB      ZA    FRAG    MASS        X           Y           Z
   0 C     6.0000    0    12.011          5.464050519652737          6.757331842555094          5.249770693875139
   1 N     7.0000    0    14.007          3.948439137642278          4.828310743405084          3.892045930353799
   2 H     1.0000    0     1.008          6.724537535227024          5.813056480422118          6.584489931442120
   3 H     1.0000    0     1.008          4.192786395936697          8.025916334613234          6.267749154683311
   4 H     1.0000    0     1.008          6.575079095295193          7.832245862052179          3.881644877712697
   5 H     1.0000    0     1.008          2.820748846677038          3.701661691539635          5.052352894390519
   6 H     1.0000    0     1.008          5.011177651658508          3.526812891272437          2.857214891883316
   7 H     1.0000    0     1.008          2.681014937430366          5.559821840119866          2.568288994089695
   8 Pb   22.0000*   0   207.200  0.274800194942561  0.143985793047996  0.498740300716765
   9 Cl   17.0000    0    35.453          5.175629178736872          0.457085067546738          0.589764629135483
  10 Cl   17.0000    0    35.453         -0.085799235658427          5.094888739938952         -0.084708863679154
  11 Cl   17.0000    0    35.453          0.408628710020730          0.657756975433970          5.622857434769077
  12 Cl   17.0000    0    35.453         -4.515030055197484         -0.227201773081352          0.751791637584025
  13 Cl   17.0000    0    35.453          0.312054255946684         -0.688585967582761         -4.481952288949327
  14 Cl   17.0000    0    35.453          0.524722145332048         -4.651358677950832          1.331364973679272
  15 N     7.0000    0    14.007         -3.673852481752850         -4.903975377807290         -3.087445895957345
  16 C     6.0000    0    12.011         -5.150448578002371         -6.884359233277280         -4.413978839912180
  17 H     1.0000    0     1.008         -4.760284382036186         -3.600636932420205         -2.082805122202388
  18 H     1.0000    0     1.008         -2.556003884493073         -3.784178472903441         -4.262538077265864
  19 H     1.0000    0     1.008         -6.252085214759238         -7.948320400102160         -3.029881058465835
  20 H     1.0000    0     1.008         -3.852008302754410         -8.153423715773437         -5.396315176108463
  21 H     1.0000    0     1.008         -6.417695143957695         -5.989830911619781         -5.776076429707413
  22 H     1.0000    0     1.008         -2.401590582638099         -5.592814568691997         -1.742072382447315
* core charge reduced due to ECP

--------------------------------
INTERNAL COORDINATES (ANGSTROEM)
--------------------------------
 C      0   0   0   0.000000     0.000     0.000
 N      1   0   0   1.483737     0.000     0.000
 H      1   2   0   1.092461   109.173     0.000
 H      1   2   3   1.092427   109.189   239.987
 H      1   2   3   1.092414   109.162   119.981
 H      2   1   3   1.043343   114.666    59.960
 H      2   1   3   1.044262   114.619   299.917
 H      2   1   3   1.044211   114.645   179.984
 Pb     8   2   1   3.321791    98.484   179.328
 Cl     7   2   1   2.021402   149.822   179.048
 Cl     8   2   1   2.043325   151.225   181.550
 Cl     6   2   1   2.077258   151.653   187.311
 Cl     9   8   2   2.545793   115.523   125.007
 Cl     9   8   2   2.672311   117.683   232.988
 Cl     9   8   2   2.578948   140.619     3.503
 N     14   9   8   3.157446    83.168   196.320
 C     16  14   9   1.483769   137.749   181.916
 H     16  14   9   1.043476    91.156    51.856
 H     16  14   9   1.042945    23.126   176.313
 H     17  16  14   1.092382   109.139   177.585
 H     17  16  14   1.092396   109.153    57.643
 H     17  16  14   1.092390   109.232   297.596
 H     16  14   9   1.045467    88.584   308.091

---------------------------
INTERNAL COORDINATES (A.U.)
---------------------------
 C      0   0   0   0.000000     0.000     0.000
 N      1   0   0   2.803857     0.000     0.000
 H      1   2   0   2.064451   109.173     0.000
 H      1   2   3   2.064388   109.189   239.987
 H      1   2   3   2.064363   109.162   119.981
 H      2   1   3   1.971633   114.666    59.960
 H      2   1   3   1.973369   114.619   299.917
 H      2   1   3   1.973273   114.645   179.984
 Pb     8   2   1   6.277275    98.484   179.328
 Cl     7   2   1   3.819896   149.822   179.048
 Cl     8   2   1   3.861324   151.225   181.550
 Cl     6   2   1   3.925450   151.653   187.311
 Cl     9   8   2   4.810851   115.523   125.007
 Cl     9   8   2   5.049937   117.683   232.988
 Cl     9   8   2   4.873505   140.619     3.503
 N     14   9   8   5.966708    83.168   196.320
 C     16  14   9   2.803916   137.749   181.916
 H     16  14   9   1.971884    91.156    51.856
 H     16  14   9   1.970881    23.126   176.313
 H     17  16  14   2.064302   109.139   177.585
 H     17  16  14   2.064330   109.153    57.643
 H     17  16  14   2.064317   109.232   297.596
 H     16  14   9   1.975647    88.584   308.091

---------------------
BASIS SET INFORMATION
---------------------
There are 5 groups of distinct atoms

 Group   1 Type C   : 11s6p2d1f contracted to 5s3p2d1f pattern {62111/411/11/1}
 Group   2 Type N   : 11s6p2d1f contracted to 5s3p2d1f pattern {62111/411/11/1}
 Group   3 Type H   : 5s1p contracted to 3s1p pattern {311/1}
 Group   4 Type Pb  : 10s9p8d2f contracted to 6s5p3d2f pattern {421111/33111/611/11}
 Group   5 Type Cl  : 14s9p3d1f contracted to 5s5p2d1f pattern {73211/51111/21/1}

Atom   0C    basis set group =>   1
Atom   1N    basis set group =>   2
Atom   2H    basis set group =>   3
Atom   3H    basis set group =>   3
Atom   4H    basis set group =>   3
Atom   5H    basis set group =>   3
Atom   6H    basis set group =>   3
Atom   7H    basis set group =>   3
Atom   8Pb   basis set group =>   4
Atom   9Cl   basis set group =>   5
Atom  10Cl   basis set group =>   5
Atom  11Cl   basis set group =>   5
Atom  12Cl   basis set group =>   5
Atom  13Cl   basis set group =>   5
Atom  14Cl   basis set group =>   5
Atom  15N    basis set group =>   2
Atom  16C    basis set group =>   1
Atom  17H    basis set group =>   3
Atom  18H    basis set group =>   3
Atom  19H    basis set group =>   3
Atom  20H    basis set group =>   3
Atom  21H    basis set group =>   3
Atom  22H    basis set group =>   3
-------------------------------
AUXILIARY BASIS SET INFORMATION
-------------------------------
There are 5 groups of distinct atoms

 Group   1 Type C   : 12s5p4d2f1g contracted to 6s4p3d1f1g pattern {711111/2111/211/2/1}
 Group   2 Type N   : 12s5p4d2f1g contracted to 6s4p3d1f1g pattern {711111/2111/211/2/1}
 Group   3 Type H   : 5s2p1d contracted to 3s1p1d pattern {311/2/1}
 Group   4 Type Pb  : 31s12p8d6f3g contracted to 31s12p8d6f3g pattern {1111111111111111111111111111111/111111111111/11111111/111111/111}
 Group   5 Type Cl  : 14s5p5d2f1g contracted to 8s4p3d1f1g pattern {71111111/2111/311/2/1}

Atom   0C    basis set group =>   1
Atom   1N    basis set group =>   2
Atom   2H    basis set group =>   3
Atom   3H    basis set group =>   3
Atom   4H    basis set group =>   3
Atom   5H    basis set group =>   3
Atom   6H    basis set group =>   3
Atom   7H    basis set group =>   3
Atom   8Pb   basis set group =>   4
Atom   9Cl   basis set group =>   5
Atom  10Cl   basis set group =>   5
Atom  11Cl   basis set group =>   5
Atom  12Cl   basis set group =>   5
Atom  13Cl   basis set group =>   5
Atom  14Cl   basis set group =>   5
Atom  15N    basis set group =>   2
Atom  16C    basis set group =>   1
Atom  17H    basis set group =>   3
Atom  18H    basis set group =>   3
Atom  19H    basis set group =>   3
Atom  20H    basis set group =>   3
Atom  21H    basis set group =>   3
Atom  22H    basis set group =>   3

-------------------------
ECP PARAMETER INFORMATION
-------------------------

 Group 1, Type Pb ECP SD(60,MDF) (replacing 60 core electrons, lmax=5)

Atom   8Pb   ECP group =>   1


------------------------------------------------------------------------------
                           ORCA GTO INTEGRAL CALCULATION
                           -- RI-GTO INTEGRALS CHOSEN --
------------------------------------------------------------------------------

                         BASIS SET STATISTICS AND STARTUP INFO

Gaussian basis set:
 # of primitive gaussian shells          ...  343
 # of primitive gaussian functions       ...  749
 # of contracted shells                  ...  186
 # of contracted basis functions         ...  468
 Highest angular momentum                ...    3
 Maximum contraction depth               ...    7
Auxiliary gaussian basis set:
 # of primitive gaussian shells          ...  414
 # of primitive gaussian functions       ... 1110
 # of contracted shells                  ...  282
 # of contracted aux-basis functions     ...  810
 Highest angular momentum                ...    4
 Maximum contraction depth               ...    7
Ratio of auxiliary to basis functions    ...  1.73
Integral package used                  ... LIBINT
 One Electron integrals                  
   ECP integrals                         ... done
 Ordering auxiliary basis shells         ... done
 Integral threshhold             Thresh  ...  2.500e-11
 Primitive cut-off               TCut    ...  2.500e-12
 Pre-screening matrix                    ... done
 Shell pair data                         ... 
 Ordering of the shell pairs             ... done (   0.002 sec) 11663 of 17391 pairs
 Determination of significant pairs      ... done (   0.000 sec)
 Creation of shell pair data             ... done (   0.005 sec)
 Storage of shell pair data              ... done (   0.004 sec)
 Shell pair data done in (   0.011 sec)
 Computing two index integrals           ... done
 Cholesky decomposition of the V-matrix  ... done


Timings:
 Total evaluation time                   ...   1.865 sec (  0.031 min)
 One electron matrix time                ...   0.995 sec (  0.017 min) = 53.3%
 Schwartz matrix evaluation time         ...   0.712 sec (  0.012 min) = 38.2%
 Two index repulsion integral time       ...   0.033 sec (  0.001 min) =  1.7%
 Cholesky decomposition of V             ...   0.077 sec (  0.001 min) =  4.1%
 Three index repulsion integral time     ...   0.000 sec (  0.000 min) =  0.0%

-------------------------------------------------------------------------------
                                 ORCA SCF
-------------------------------------------------------------------------------

------------
SCF SETTINGS
------------
Hamiltonian:
 Density Functional     Method          .... DFT(GTOs)
 Exchange Functional    Exchange        .... B88
   X-Alpha parameter    XAlpha          ....  0.666667
   Becke's b parameter  XBeta           ....  0.004200
 Correlation Functional Correlation     .... LYP
 LDA part of GGA corr.  LDAOpt          .... VWN-3
 Gradients option       PostSCFGGA      .... off
 Hybrid DFT is turned on
   Fraction HF Exchange ScalHFX         ....  0.530000
   Scaling of DF-GGA-X  ScalDFX         ....  0.470000
   Scaling of DF-GGA-C  ScalDFC         ....  0.730000
   Scaling of DF-LDA-C  ScalLDAC        ....  0.730000
   Perturbative correction              ....  0.270000
 RI-approximation to the Coulomb term is turned on
   Number of auxiliary basis functions  .... 810
   RIJ-COSX (HFX calculated with COS-X)).... on


General Settings:
 Integral files         IntName         .... PbCl6_MA2_mp2_sp_9.orca
 Hartree-Fock type      HFTyp           .... RHF
 Total Charge           Charge          ....    0
 Multiplicity           Mult            ....    1
 Number of Electrons    NEL             ....  162
 Basis Dimension        Dim             ....  468
 Nuclear Repulsion      ENuc            ....   1707.1371950080 Eh

Convergence Acceleration:
 DIIS                   CNVDIIS         .... on
   Start iteration      DIISMaxIt       ....    12
   Startup error        DIISStart       ....  0.200000
   # of expansion vecs  DIISMaxEq       ....     5
   Bias factor          DIISBfac        ....   1.050
   Max. coefficient     DIISMaxC        ....  10.000
 Newton-Raphson         CNVNR           .... off
 SOSCF                  CNVSOSCF        .... on
   Start iteration      SOSCFMaxIt      ....   150
   Startup grad/error   SOSCFStart      ....  0.003300
 Level Shifting         CNVShift        .... on
   Level shift para.    LevelShift      ....    0.2500
   Turn off err/grad.   ShiftErr        ....    0.0010
 Zerner damping         CNVZerner       .... off
 Static damping         CNVDamp         .... on
   Fraction old density DampFac         ....    0.7000
   Max. Damping (<1)    DampMax         ....    0.9800
   Min. Damping (>=0)   DampMin         ....    0.0000
   Turn off err/grad.   DampErr         ....    0.1000
 Fernandez-Rico         CNVRico         .... off

SCF Procedure:
 Maximum # iterations   MaxIter         ....   125
 SCF integral mode      SCFMode         .... Direct
   Integral package                     .... LIBINT
 Reset frequeny         DirectResetFreq ....    20
 Integral Threshold     Thresh          ....  2.500e-11 Eh
 Primitive CutOff       TCut            ....  2.500e-12 Eh

Convergence Tolerance:
 Convergence Check Mode ConvCheckMode   .... Total+1el-Energy
 Energy Change          TolE            ....  1.000e-08 Eh
 1-El. energy change                    ....  1.000e-05 Eh
 Orbital Gradient       TolG            ....  1.000e-05
 Orbital Rotation angle TolX            ....  1.000e-05
 DIIS Error             TolErr          ....  5.000e-07


Diagonalization of the overlap matrix:
Smallest eigenvalue                        ... 1.095e-03
Time for diagonalization                   ...    0.159 sec
Threshold for overlap eigenvalues          ... 1.000e-08
Number of eigenvalues below threshold      ... 0
Time for construction of square roots      ...    0.050 sec
Total time needed                          ...    0.210 sec

---------------------
INITIAL GUESS: MOREAD
---------------------
Guess MOs are being read from file: previous.gbw
Input geometry compatible with but different from current geometry
Input basis set matches current basis set (good)
MOs were renormalized
MOs were reorthogonalized (Schmidt)
                      ------------------
                      INITIAL GUESS DONE (   2.0 sec)
                      ------------------
-------------------
DFT GRID GENERATION
-------------------

General Integration Accuracy     IntAcc      ...  5.010
Radial Grid Type                 RadialGrid  ... Gauss-Chebyshev
Angular Grid (max. acc.)         AngularGrid ... Lebedev-434
Angular grid pruning method      GridPruning ... 3 (G Style)
Weight generation scheme         WeightScheme... Becke
Basis function cutoff            BFCut       ...    1.0000e-11
Integration weight cutoff        WCut        ...    1.0000e-14
Grids for H and He will be reduced by one unit

# of grid points (after initial pruning)     ... 212974 (   0.2 sec)
# of grid points (after weights+screening)   ... 195643 (   2.1 sec)
nearest neighbour list constructed           ...    0.0 sec
Grid point re-assignment to atoms done       ...    0.1 sec
Grid point division into batches done        ...    1.8 sec
Reduced shell lists constructed in    7.8 sec

Total number of grid points                  ...   195643
Total number of batches                      ...     3071
Average number of points per batch           ...       63
Average number of grid points per atom       ...     8506
Average number of shells per batch           ...    69.98 (37.62%)
Average number of basis functions per batch  ...   179.16 (38.28%)
Average number of large shells per batch     ...    48.02 (68.62%)
Average number of large basis fcns per batch ...   122.18 (68.20%)
Maximum spatial batch extension              ...  25.58, 27.77, 30.33 au
Average spatial batch extension              ...   2.08,  2.07,  2.07 au

Time for grid setup =   10.132 sec

--------------------
COSX GRID GENERATION
--------------------

General Integration Accuracy     IntAcc      ...  3.340
Radial Grid Type                 RadialGrid  ... Gauss-Chebyshev
Angular Grid (max. acc.)         AngularGrid ... Lebedev-50
Angular grid pruning method      GridPruning ... 3 (G Style)
Weight generation scheme         WeightScheme... Becke
Basis function cutoff            BFCut       ...    1.0000e-11
Integration weight cutoff        WCut        ...    1.0000e-14
Grids for H and He will be reduced by one unit

# of grid points (after initial pruning)     ...  11762 (   0.0 sec)
# of grid points (after weights+screening)   ...  10895 (   0.1 sec)
nearest neighbour list constructed           ...    0.0 sec
Grid point re-assignment to atoms done       ...    0.0 sec
Grid point division into batches done        ...    0.0 sec
Reduced shell lists constructed in    0.4 sec

Total number of grid points                  ...    10895
Total number of batches                      ...      182
Average number of points per batch           ...       59
Average number of grid points per atom       ...      474
Average number of shells per batch           ...    88.35 (47.50%)
Average number of basis functions per batch  ...   230.90 (49.34%)
Average number of large shells per batch     ...    61.81 (69.96%)
Average number of large basis fcns per batch ...   160.58 (69.55%)
Maximum spatial batch extension              ...  24.79, 19.86, 22.96 au
Average spatial batch extension              ...   5.50,  5.12,  5.26 au

Overlap Fitting                  UseSFitting ... on
Constructing numerical overlap ... done (      0.3 sec)
Inverting numerical overlap    ... done (      0.0 sec)
Obtaining analytic overlap     ... done (      0.0 sec)
Final contraction and storage  ... done (      0.0 sec)


General Integration Accuracy     IntAcc      ...  3.670
Radial Grid Type                 RadialGrid  ... Gauss-Chebyshev
Angular Grid (max. acc.)         AngularGrid ... Lebedev-50
Angular grid pruning method      GridPruning ... 3 (G Style)
Weight generation scheme         WeightScheme... Becke
Basis function cutoff            BFCut       ...    1.0000e-11
Integration weight cutoff        WCut        ...    1.0000e-14
Grids for H and He will be reduced by one unit

# of grid points (after initial pruning)     ...  14690 (   0.0 sec)
# of grid points (after weights+screening)   ...  13573 (   0.1 sec)
nearest neighbour list constructed           ...    0.0 sec
Grid point re-assignment to atoms done       ...    0.0 sec
Grid point division into batches done        ...    0.0 sec
Reduced shell lists constructed in    0.5 sec

Total number of grid points                  ...    13573
Total number of batches                      ...      223
Average number of points per batch           ...       60
Average number of grid points per atom       ...      590
Average number of shells per batch           ...    87.00 (46.78%)
Average number of basis functions per batch  ...   227.21 (48.55%)
Average number of large shells per batch     ...    60.88 (69.98%)
Average number of large basis fcns per batch ...   157.34 (69.25%)
Maximum spatial batch extension              ...  25.51, 20.91, 23.84 au
Average spatial batch extension              ...   5.03,  4.80,  4.95 au

Overlap Fitting                  UseSFitting ... on
Constructing numerical overlap ... done (      0.4 sec)
Inverting numerical overlap    ... done (      0.0 sec)
Obtaining analytic overlap     ... done (      0.0 sec)
Final contraction and storage  ... done (      0.0 sec)


General Integration Accuracy     IntAcc      ...  4.010
Radial Grid Type                 RadialGrid  ... Gauss-Chebyshev
Angular Grid (max. acc.)         AngularGrid ... Lebedev-110
Angular grid pruning method      GridPruning ... 3 (G Style)
Weight generation scheme         WeightScheme... Becke
Basis function cutoff            BFCut       ...    1.0000e-11
Integration weight cutoff        WCut        ...    1.0000e-14
Grids for H and He will be reduced by one unit

# of grid points (after initial pruning)     ...  27082 (   0.0 sec)
# of grid points (after weights+screening)   ...  25244 (   0.3 sec)
nearest neighbour list constructed           ...    0.0 sec
Grid point re-assignment to atoms done       ...    0.0 sec
Grid point division into batches done        ...    0.0 sec
Reduced shell lists constructed in    0.9 sec

Total number of grid points                  ...    25244
Total number of batches                      ...      405
Average number of points per batch           ...       62
Average number of grid points per atom       ...     1098
Average number of shells per batch           ...    82.02 (44.10%)
Average number of basis functions per batch  ...   213.36 (45.59%)
Average number of large shells per batch     ...    56.97 (69.46%)
Average number of large basis fcns per batch ...   147.06 (68.93%)
Maximum spatial batch extension              ...  28.75, 27.23, 27.17 au
Average spatial batch extension              ...   4.24,  4.18,  4.13 au

Overlap Fitting                  UseSFitting ... on
Constructing numerical overlap ... done (      0.6 sec)
Inverting numerical overlap    ... done (      0.0 sec)
Obtaining analytic overlap     ... done (      0.0 sec)
Final contraction and storage  ... done (      0.0 sec)

Time for X-Grid setup             =    3.925 sec
--------------
SCF ITERATIONS
--------------
ITER       Energy         Delta-E        Max-DP      RMS-DP      [F,P]     Damp
               ***  Starting incremental Fock matrix formation  ***
  0  -3145.3846027373   0.000000000000 0.00625425  0.00007642  0.1199798 0.7000
                      *** Initiating the SOSCF procedure ***
                      *** Re-Reading the Fockian *** 
                      *** Removing any level shift *** 
ITER      Energy       Delta-E        Grad      Rot      Max-DP    RMS-DP
  1  -3145.38592085  -0.0013181135  0.001824  0.001824  0.021216  0.000246
               *** Restarting incremental Fock matrix formation ***
  2  -3145.38944475  -0.0035239036  0.001760  0.008493  0.009155  0.000111
  3  -3145.38978525  -0.0003404947  0.000873  0.005587  0.004159  0.000063
  4  -3145.38989761  -0.0001123629  0.000357  0.000616  0.001420  0.000014
  5  -3145.38990518  -0.0000075639  0.000151  0.000249  0.000787  0.000006
  6  -3145.38990644  -0.0000012670  0.000080  0.000159  0.000384  0.000002
  7  -3145.38990662  -0.0000001781  0.000039  0.000044  0.000125  0.000001
  8  -3145.38990664  -0.0000000195  0.000005  0.000025  0.000025  0.000000
                  ***Gradient check signals convergence***
              ***Rediagonalizing the Fockian in SOSCF/NRSCF***

               *****************************************************
               *                     SUCCESS                       *
               *           SCF CONVERGED AFTER   9 CYCLES          *
               *****************************************************

Old exchange energy                            =   -110.362053174 Eh
New exchange energy                            =   -110.369127337 Eh
Exchange energy change after final integration =     -0.007074163 Eh
Total energy after final integration           =  -3145.396980807 Eh
Final COS-X integration done in                =   110.482 sec

----------------
TOTAL SCF ENERGY
----------------

Total Energy       :        -3145.39698081 Eh          -85590.60319 eV

Components:
Nuclear Repulsion  :         1707.13719501 Eh           46453.56473 eV
Electronic Energy  :        -4852.53417582 Eh         -132044.16792 eV

One Electron Energy:        -7818.97951645 Eh         -212765.24942 eV
Two Electron Energy:         2966.44534064 Eh           80721.08150 eV

Virial components:
Potential Energy   :        -6157.66783028 Eh         -167558.66018 eV
Kinetic Energy     :         3012.27084948 Eh           81968.05699 eV
Virial Ratio       :            2.04419461


DFT components:
N(Alpha)           :       81.000038409046 electrons
N(Beta)            :       81.000038409046 electrons
N(Total)           :      162.000076818092 electrons
E(X)               :      -97.945135654722 Eh       
E(C)               :       -4.612313468102 Eh       
E(XC)              :     -102.557449122824 Eh       

---------------
SCF CONVERGENCE
---------------

  Last Energy change         ...   -3.2342e-09  Tolerance :   1.0000e-08
  Last MAX-Density change    ...    1.7408e-13  Tolerance :   1.0000e-07
  Last RMS-Density change    ...    8.7907e-16  Tolerance :   5.0000e-09
  Last Orbital Gradient      ...    1.8900e-06  Tolerance :   1.0000e-05
  Last Orbital Rotation      ...    1.1382e-05  Tolerance :   1.0000e-05

             **** THE GBW FILE WAS UPDATED (PbCl6_MA2_mp2_sp_9.orca.gbw) ****
             **** DENSITY FILE WAS UPDATED (PbCl6_MA2_mp2_sp_9.orca.scfp.tmp) ****
             **** ENERGY FILE WAS UPDATED (PbCl6_MA2_mp2_sp_9.orca.en.tmp) ****
----------------
ORBITAL ENERGIES
----------------

  NO   OCC          E(Eh)            E(eV) 
   0   2.0000    -102.874516     -2799.3579 
   1   2.0000    -102.872378     -2799.2997 
   2   2.0000    -102.869919     -2799.2328 
   3   2.0000    -102.866228     -2799.1324 
   4   2.0000    -102.865002     -2799.0990 
   5   2.0000    -102.850203     -2798.6963 
   6   2.0000     -14.975948      -407.5163 
   7   2.0000     -14.934709      -406.3941 
   8   2.0000     -10.717883      -291.6484 
   9   2.0000     -10.695027      -291.0265 
  10   2.0000      -9.880887      -268.8726 
  11   2.0000      -9.879114      -268.8244 
  12   2.0000      -9.876329      -268.7486 
  13   2.0000      -9.872601      -268.6471 
  14   2.0000      -9.870939      -268.6019 
  15   2.0000      -9.856425      -268.2070 
  16   2.0000      -7.519077      -204.6045 
  17   2.0000      -7.517140      -204.5518 
  18   2.0000      -7.515715      -204.5130 
  19   2.0000      -7.515319      -204.5022 
  20   2.0000      -7.514272      -204.4737 
  21   2.0000      -7.514079      -204.4685 
  22   2.0000      -7.513512      -204.4530 
  23   2.0000      -7.511358      -204.3944 
  24   2.0000      -7.510817      -204.3797 
  25   2.0000      -7.510654      -204.3753 
  26   2.0000      -7.508850      -204.3262 
  27   2.0000      -7.507538      -204.2905 
  28   2.0000      -7.507093      -204.2784 
  29   2.0000      -7.506044      -204.2499 
  30   2.0000      -7.505577      -204.2371 
  31   2.0000      -7.494173      -203.9268 
  32   2.0000      -7.491643      -203.8580 
  33   2.0000      -7.491069      -203.8424 
  34   2.0000      -5.838625      -158.8771 
  35   2.0000      -3.611473       -98.2732 
  36   2.0000      -3.610764       -98.2539 
  37   2.0000      -3.610687       -98.2518 
  38   2.0000      -1.149089       -31.2683 
  39   2.0000      -1.119381       -30.4599 
  40   2.0000      -1.014190       -27.5975 
  41   2.0000      -1.009253       -27.4632 
  42   2.0000      -0.997509       -27.1436 
  43   2.0000      -0.996330       -27.1115 
  44   2.0000      -0.996232       -27.1088 
  45   2.0000      -0.904723       -24.6188 
  46   2.0000      -0.891479       -24.2584 
  47   2.0000      -0.885213       -24.0879 
  48   2.0000      -0.875108       -23.8129 
  49   2.0000      -0.866628       -23.5821 
  50   2.0000      -0.865810       -23.5599 
  51   2.0000      -0.858707       -23.3666 
  52   2.0000      -0.841574       -22.9004 
  53   2.0000      -0.675738       -18.3878 
  54   2.0000      -0.674954       -18.3664 
  55   2.0000      -0.648236       -17.6394 
  56   2.0000      -0.647068       -17.6076 
  57   2.0000      -0.609377       -16.5820 
  58   2.0000      -0.584389       -15.9020 
  59   2.0000      -0.574418       -15.6307 
  60   2.0000      -0.528194       -14.3729 
  61   2.0000      -0.528009       -14.3678 
  62   2.0000      -0.507308       -13.8046 
  63   2.0000      -0.506559       -13.7842 
  64   2.0000      -0.417594       -11.3633 
  65   2.0000      -0.412918       -11.2361 
  66   2.0000      -0.405590       -11.0367 
  67   2.0000      -0.377564       -10.2740 
  68   2.0000      -0.371674       -10.1138 
  69   2.0000      -0.367654       -10.0044 
  70   2.0000      -0.357362        -9.7243 
  71   2.0000      -0.355184        -9.6650 
  72   2.0000      -0.351643        -9.5687 
  73   2.0000      -0.349988        -9.5236 
  74   2.0000      -0.347402        -9.4533 
  75   2.0000      -0.344007        -9.3609 
  76   2.0000      -0.341141        -9.2829 
  77   2.0000      -0.338685        -9.2161 
  78   2.0000      -0.334139        -9.0924 
  79   2.0000      -0.333683        -9.0800 
  80   2.0000      -0.328406        -8.9364 
  81   0.0000      -0.126807        -3.4506 
  82   0.0000       0.029931         0.8145 
  83   0.0000       0.051150         1.3919 
  84   0.0000       0.072017         1.9597 
  85   0.0000       0.078931         2.1478 
  86   0.0000       0.084728         2.3056 
  87   0.0000       0.090217         2.4549 
  88   0.0000       0.105572         2.8728 
  89   0.0000       0.105978         2.8838 
  90   0.0000       0.107617         2.9284 
  91   0.0000       0.122857         3.3431 
  92   0.0000       0.123975         3.3735 
  93   0.0000       0.131844         3.5876 
  94   0.0000       0.134842         3.6693 
  95   0.0000       0.157899         4.2967 
  96   0.0000       0.159643         4.3441 
  97   0.0000       0.164473         4.4755 
  98   0.0000       0.173802         4.7294 
  99   0.0000       0.176834         4.8119 
 100   0.0000       0.181141         4.9291 
 101   0.0000       0.200407         5.4533 
 102   0.0000       0.218237         5.9385 
 103   0.0000       0.237784         6.4704 
 104   0.0000       0.243066         6.6142 
 105   0.0000       0.260683         7.0935 
 106   0.0000       0.263614         7.1733 
 107   0.0000       0.267040         7.2665 
 108   0.0000       0.270896         7.3715 
 109   0.0000       0.271661         7.3923 
 110   0.0000       0.281170         7.6510 
 111   0.0000       0.285564         7.7706 
 112   0.0000       0.304506         8.2860 
 113   0.0000       0.306117         8.3299 
 114   0.0000       0.315791         8.5931 
 115   0.0000       0.338896         9.2218 
 116   0.0000       0.340930         9.2772 
 117   0.0000       0.345386         9.3984 
 118   0.0000       0.366461         9.9719 
 119   0.0000       0.374173        10.1818 
 120   0.0000       0.378345        10.2953 
 121   0.0000       0.388260        10.5651 
 122   0.0000       0.405806        11.0425 
 123   0.0000       0.408093        11.1048 
 124   0.0000       0.411395        11.1946 
 125   0.0000       0.413268        11.2456 
 126   0.0000       0.429829        11.6962 
 127   0.0000       0.434773        11.8308 
 128   0.0000       0.436779        11.8854 
 129   0.0000       0.441704        12.0194 
 130   0.0000       0.447847        12.1865 
 131   0.0000       0.453544        12.3416 
 132   0.0000       0.457851        12.4588 
 133   0.0000       0.458960        12.4889 
 134   0.0000       0.462656        12.5895 
 135   0.0000       0.467338        12.7169 
 136   0.0000       0.476875        12.9764 
 137   0.0000       0.478387        13.0176 
 138   0.0000       0.482061        13.1175 
 139   0.0000       0.486280        13.2324 
 140   0.0000       0.487690        13.2707 
 141   0.0000       0.492764        13.4088 
 142   0.0000       0.494374        13.4526 
 143   0.0000       0.507350        13.8057 
 144   0.0000       0.514940        14.0122 
 145   0.0000       0.515300        14.0220 
 146   0.0000       0.521844        14.2001 
 147   0.0000       0.522634        14.2216 
 148   0.0000       0.525266        14.2932 
 149   0.0000       0.546043        14.8586 
 150   0.0000       0.558281        15.1916 
 151   0.0000       0.568539        15.4707 
 152   0.0000       0.576986        15.7006 
 153   0.0000       0.580844        15.8056 
 154   0.0000       0.590753        16.0752 
 155   0.0000       0.594509        16.1774 
 156   0.0000       0.597072        16.2472 
 157   0.0000       0.602989        16.4082 
 158   0.0000       0.608839        16.5673 
 159   0.0000       0.616184        16.7672 
 160   0.0000       0.618601        16.8330 
 161   0.0000       0.624922        17.0050 
 162   0.0000       0.630955        17.1692 
 163   0.0000       0.644260        17.5312 
 164   0.0000       0.659941        17.9579 
 165   0.0000       0.660968        17.9859 
 166   0.0000       0.667327        18.1589 
 167   0.0000       0.670622        18.2486 
 168   0.0000       0.683751        18.6058 
 169   0.0000       0.697999        18.9935 
 170   0.0000       0.704408        19.1679 
 171   0.0000       0.710265        19.3273 
 172   0.0000       0.716165        19.4878 
 173   0.0000       0.720764        19.6130 
 174   0.0000       0.732515        19.9327 
 175   0.0000       0.736495        20.0411 
 176   0.0000       0.738400        20.0929 
 177   0.0000       0.747447        20.3391 
 178   0.0000       0.748277        20.3616 
 179   0.0000       0.765148        20.8207 
 180   0.0000       0.775585        21.1047 
 181   0.0000       0.786587        21.4041 
 182   0.0000       0.796300        21.6684 
 183   0.0000       0.805755        21.9257 
 184   0.0000       0.824556        22.4373 
 185   0.0000       0.831970        22.6390 
 186   0.0000       0.837337        22.7851 
 187   0.0000       0.850675        23.1481 
 188   0.0000       0.876679        23.8557 
 189   0.0000       0.892826        24.2950 
 190   0.0000       0.900042        24.4914 
 191   0.0000       0.900498        24.5038 
 192   0.0000       0.904519        24.6132 
 193   0.0000       0.910463        24.7750 
 194   0.0000       0.913171        24.8486 
 195   0.0000       0.917898        24.9773 
 196   0.0000       0.941977        25.6325 
 197   0.0000       0.946319        25.7506 
 198   0.0000       0.974761        26.5246 
 199   0.0000       0.976771        26.5793 
 200   0.0000       1.001760        27.2593 
 201   0.0000       1.028722        27.9929 
 202   0.0000       1.051691        28.6180 
 203   0.0000       1.092390        29.7254 
 204   0.0000       1.130659        30.7668 
 205   0.0000       1.148892        31.2629 
 206   0.0000       1.166522        31.7427 
 207   0.0000       1.171764        31.8853 
 208   0.0000       1.194219        32.4964 
 209   0.0000       1.196114        32.5479 
 210   0.0000       1.216232        33.0953 
 211   0.0000       1.221096        33.2277 
 212   0.0000       1.275866        34.7181 
 213   0.0000       1.285567        34.9821 
 214   0.0000       1.292004        35.1572 
 215   0.0000       1.302679        35.4477 
 216   0.0000       1.316387        35.8207 
 217   0.0000       1.328465        36.1494 
 218   0.0000       1.342867        36.5413 
 219   0.0000       1.354129        36.8477 
 220   0.0000       1.387602        37.7586 
 221   0.0000       1.412352        38.4321 
 222   0.0000       1.417764        38.5793 
 223   0.0000       1.490544        40.5598 
 224   0.0000       1.511043        41.1176 
 225   0.0000       1.557581        42.3839 
 226   0.0000       1.577979        42.9390 
 227   0.0000       1.581141        43.0250 
 228   0.0000       1.584663        43.1209 
 229   0.0000       1.586903        43.1818 
 230   0.0000       1.612992        43.8917 
 231   0.0000       1.615130        43.9499 
 232   0.0000       1.616208        43.9793 
 233   0.0000       1.617166        44.0053 
 234   0.0000       1.627041        44.2740 
 235   0.0000       1.725421        46.9511 
 236   0.0000       1.756785        47.8045 
 237   0.0000       1.778566        48.3972 
 238   0.0000       1.779387        48.4196 
 239   0.0000       1.793062        48.7917 
 240   0.0000       1.795964        48.8707 
 241   0.0000       1.862107        50.6705 
 242   0.0000       1.884459        51.2787 
 243   0.0000       1.885426        51.3051 
 244   0.0000       1.893386        51.5217 
 245   0.0000       1.898362        51.6571 
 246   0.0000       1.902371        51.7661 
 247   0.0000       1.914428        52.0942 
 248   0.0000       1.918898        52.2159 
 249   0.0000       1.938082        52.7379 
 250   0.0000       1.944361        52.9087 
 251   0.0000       1.945882        52.9501 
 252   0.0000       1.949449        53.0472 
 253   0.0000       1.952184        53.1216 
 254   0.0000       1.956204        53.2310 
 255   0.0000       1.959654        53.3249 
 256   0.0000       1.965284        53.4781 
 257   0.0000       1.971909        53.6584 
 258   0.0000       1.976378        53.7800 
 259   0.0000       1.981256        53.9127 
 260   0.0000       1.981626        53.9228 
 261   0.0000       2.004636        54.5489 
 262   0.0000       2.015710        54.8502 
 263   0.0000       2.016842        54.8811 
 264   0.0000       2.020753        54.9875 
 265   0.0000       2.028022        55.1853 
 266   0.0000       2.033442        55.3328 
 267   0.0000       2.037503        55.4433 
 268   0.0000       2.044683        55.6386 
 269   0.0000       2.049183        55.7611 
 270   0.0000       2.064438        56.1762 
 271   0.0000       2.079358        56.5822 
 272   0.0000       2.082188        56.6592 
 273   0.0000       2.086788        56.7844 
 274   0.0000       2.089670        56.8628 
 275   0.0000       2.092906        56.9509 
 276   0.0000       2.100500        57.1575 
 277   0.0000       2.105692        57.2988 
 278   0.0000       2.111821        57.4656 
 279   0.0000       2.120641        57.7056 
 280   0.0000       2.125144        57.8281 
 281   0.0000       2.138751        58.1984 
 282   0.0000       2.141834        58.2823 
 283   0.0000       2.149202        58.4828 
 284   0.0000       2.156607        58.6843 
 285   0.0000       2.158967        58.7485 
 286   0.0000       2.170091        59.0512 
 287   0.0000       2.182146        59.3792 
 288   0.0000       2.188529        59.5529 
 289   0.0000       2.199228        59.8440 
 290   0.0000       2.205258        60.0081 
 291   0.0000       2.212469        60.2044 
 292   0.0000       2.223807        60.5129 
 293   0.0000       2.224666        60.5363 
 294   0.0000       2.225098        60.5480 
 295   0.0000       2.228797        60.6487 
 296   0.0000       2.233095        60.7656 
 297   0.0000       2.233993        60.7900 
 298   0.0000       2.234854        60.8135 
 299   0.0000       2.236828        60.8672 
 300   0.0000       2.237786        60.8933 
 301   0.0000       2.238090        60.9015 
 302   0.0000       2.242237        61.0144 
 303   0.0000       2.243744        61.0554 
 304   0.0000       2.247092        61.1465 
 305   0.0000       2.248428        61.1828 
 306   0.0000       2.250662        61.2436 
 307   0.0000       2.251624        61.2698 
 308   0.0000       2.256879        61.4128 
 309   0.0000       2.263419        61.5908 
 310   0.0000       2.264648        61.6242 
 311   0.0000       2.273533        61.8660 
 312   0.0000       2.275475        61.9188 
 313   0.0000       2.281695        62.0881 
 314   0.0000       2.300418        62.5975 
 315   0.0000       2.307019        62.7772 
 316   0.0000       2.312655        62.9305 
 317   0.0000       2.338152        63.6243 
 318   0.0000       2.342968        63.7554 
 319   0.0000       2.345937        63.8362 
 320   0.0000       2.356424        64.1216 
 321   0.0000       2.361548        64.2610 
 322   0.0000       2.364710        64.3470 
 323   0.0000       2.366364        64.3921 
 324   0.0000       2.371435        64.5300 
 325   0.0000       2.373288        64.5805 
 326   0.0000       2.383990        64.8717 
 327   0.0000       2.390684        65.0538 
 328   0.0000       2.405240        65.4499 
 329   0.0000       2.409309        65.5606 
 330   0.0000       2.415721        65.7351 
 331   0.0000       2.420799        65.8733 
 332   0.0000       2.433212        66.2111 
 333   0.0000       2.439590        66.3846 
 334   0.0000       2.444214        66.5104 
 335   0.0000       2.460323        66.9488 
 336   0.0000       2.468136        67.1614 
 337   0.0000       2.475703        67.3673 
 338   0.0000       2.482452        67.5510 
 339   0.0000       2.493332        67.8470 
 340   0.0000       2.506959        68.2178 
 341   0.0000       2.513493        68.3956 
 342   0.0000       2.518430        68.5300 
 343   0.0000       2.524936        68.7070 
 344   0.0000       2.533243        68.9331 
 345   0.0000       2.545647        69.2706 
 346   0.0000       2.554541        69.5126 
 347   0.0000       2.560850        69.6843 
 348   0.0000       2.565084        69.7995 
 349   0.0000       2.571965        69.9867 
 350   0.0000       2.593135        70.5628 
 351   0.0000       2.596008        70.6410 
 352   0.0000       2.603065        70.8330 
 353   0.0000       2.610077        71.0238 
 354   0.0000       2.618258        71.2464 
 355   0.0000       2.619952        71.2925 
 356   0.0000       2.621671        71.3393 
 357   0.0000       2.623476        71.3884 
 358   0.0000       2.641447        71.8774 
 359   0.0000       2.658363        72.3377 
 360   0.0000       2.662247        72.4434 
 361   0.0000       2.670743        72.6746 
 362   0.0000       2.705711        73.6261 
 363   0.0000       2.738853        74.5280 
 364   0.0000       2.750257        74.8383 
 365   0.0000       2.758524        75.0632 
 366   0.0000       2.777855        75.5893 
 367   0.0000       2.783830        75.7519 
 368   0.0000       2.796025        76.0837 
 369   0.0000       2.797797        76.1319 
 370   0.0000       2.800244        76.1985 
 371   0.0000       2.823129        76.8212 
 372   0.0000       2.823609        76.8343 
 373   0.0000       2.876730        78.2798 
 374   0.0000       2.938166        79.9516 
 375   0.0000       3.018775        82.1450 
 376   0.0000       3.060127        83.2703 
 377   0.0000       3.118591        84.8612 
 378   0.0000       3.118720        84.8647 
 379   0.0000       3.135594        85.3238 
 380   0.0000       3.155746        85.8722 
 381   0.0000       3.157515        85.9203 
 382   0.0000       3.187637        86.7400 
 383   0.0000       3.221452        87.6602 
 384   0.0000       3.228030        87.8392 
 385   0.0000       3.234447        88.0138 
 386   0.0000       3.263569        88.8062 
 387   0.0000       3.266169        88.8770 
 388   0.0000       3.290960        89.5516 
 389   0.0000       3.315858        90.2291 
 390   0.0000       3.387151        92.1691 
 391   0.0000       3.409871        92.7873 
 392   0.0000       3.442195        93.6669 
 393   0.0000       3.548794        96.5676 
 394   0.0000       3.572384        97.2095 
 395   0.0000       3.574341        97.2628 
 396   0.0000       3.578496        97.3758 
 397   0.0000       3.605530        98.1115 
 398   0.0000       3.606828        98.1468 
 399   0.0000       3.765459       102.4633 
 400   0.0000       3.765634       102.4681 
 401   0.0000       3.793071       103.2147 
 402   0.0000       3.794846       103.2630 
 403   0.0000       3.912809       106.4729 
 404   0.0000       3.948019       107.4311 
 405   0.0000       4.184429       113.8641 
 406   0.0000       4.188577       113.9770 
 407   0.0000       4.225306       114.9764 
 408   0.0000       4.227424       115.0341 
 409   0.0000       4.389165       119.4352 
 410   0.0000       4.432782       120.6221 
 411   0.0000       4.440228       120.8247 
 412   0.0000       4.464037       121.4726 
 413   0.0000       4.833861       131.5360 
 414   0.0000       4.834421       131.5513 
 415   0.0000       4.875322       132.6643 
 416   0.0000       4.876350       132.6922 
 417   0.0000       4.939706       134.4162 
 418   0.0000       4.942585       134.4946 
 419   0.0000       4.992109       135.8422 
 420   0.0000       4.997104       135.9781 
 421   0.0000       5.066525       137.8671 
 422   0.0000       5.100392       138.7887 
 423   0.0000       5.104874       138.9107 
 424   0.0000       5.119771       139.3161 
 425   0.0000       5.151100       140.1686 
 426   0.0000       5.152001       140.1931 
 427   0.0000       5.303711       144.3213 
 428   0.0000       5.354264       145.6969 
 429   0.0000       5.508374       149.8905 
 430   0.0000       5.514020       150.0441 
 431   0.0000       5.549283       151.0037 
 432   0.0000       5.554782       151.1533 
 433   0.0000       5.843775       159.0172 
 434   0.0000       5.877283       159.9290 
 435   0.0000      11.028155       300.0914 
 436   0.0000      11.028657       300.1050 
 437   0.0000      11.053559       300.7826 
 438   0.0000      11.076226       301.3994 
 439   0.0000      11.078787       301.4691 
 440   0.0000      11.084844       301.6339 
 441   0.0000      11.090078       301.7764 
 442   0.0000      11.106169       302.2142 
 443   0.0000      11.118896       302.5605 
 444   0.0000      11.127957       302.8071 
 445   0.0000      11.140637       303.1521 
 446   0.0000      11.152962       303.4875 
 447   0.0000      11.158749       303.6450 
 448   0.0000      11.165253       303.8220 
 449   0.0000      11.171813       304.0005 
 450   0.0000      11.209564       305.0278 
 451   0.0000      11.229121       305.5599 
 452   0.0000      11.277738       306.8828 
 453   0.0000      22.648603       616.2998 
 454   0.0000      22.680997       617.1813 
 455   0.0000      25.303915       688.5545 
 456   0.0000      25.356099       689.9745 
 457   0.0000      25.365686       690.2354 
 458   0.0000      25.397267       691.0948 
 459   0.0000      25.470750       693.0943 
 460   0.0000      25.633654       697.5272 
 461   0.0000      32.336567       879.9227 
 462   0.0000      32.444649       882.8638 
 463   0.0000      35.678743       970.8680 
 464   0.0000      35.802264       974.2291 
 465   0.0000      35.804829       974.2989 
 466   0.0000      35.920657       977.4508 
 467   0.0000     123.604152      3363.4400 

                    ********************************
                    * MULLIKEN POPULATION ANALYSIS *
                    ********************************

-----------------------
MULLIKEN ATOMIC CHARGES
-----------------------
   0 C :   -0.254246
   1 N :   -0.296725
   2 H :    0.153853
   3 H :    0.153655
   4 H :    0.152538
   5 H :    0.279074
   6 H :    0.281416
   7 H :    0.278282
   8 Pb:    1.157704
   9 Cl:   -0.428781
  10 Cl:   -0.445130
  11 Cl:   -0.478089
  12 Cl:   -0.429841
  13 Cl:   -0.474965
  14 Cl:   -0.443638
  15 N :   -0.286615
  16 C :   -0.255278
  17 H :    0.285643
  18 H :    0.283995
  19 H :    0.162164
  20 H :    0.162270
  21 H :    0.160423
  22 H :    0.282293
Sum of atomic charges:   -0.0000000

--------------------------------
MULLIKEN REDUCED ORBITAL CHARGES
--------------------------------
  0 C s       :     3.271989  s :     3.271989
      pz      :     1.002966  p :     2.906243
      px      :     0.983836
      py      :     0.919441
      dz2     :     0.006232  d :     0.069990
      dxz     :     0.018481
      dyz     :     0.017762
      dx2y2   :     0.009164
      dxy     :     0.018351
      f0      :     0.000298  f :     0.006024
      f+1     :     0.000543
      f-1     :     0.000708
      f+2     :     0.000614
      f-2     :     0.002510
      f+3     :     0.000624
      f-3     :     0.000726
  1 N s       :     3.409702  s :     3.409702
      pz      :     1.292002  p :     3.838430
      px      :     1.284088
      py      :     1.262339
      dz2     :     0.004126  d :     0.046431
      dxz     :     0.012403
      dyz     :     0.011609
      dx2y2   :     0.006675
      dxy     :     0.011617
      f0      :     0.000115  f :     0.002162
      f+1     :     0.000184
      f-1     :     0.000185
      f+2     :     0.000192
      f-2     :     0.001082
      f+3     :     0.000204
      f-3     :     0.000201
  2 H s       :     0.824479  s :     0.824479
      pz      :     0.008511  p :     0.021669
      px      :     0.007980
      py      :     0.005177
  3 H s       :     0.824675  s :     0.824675
      pz      :     0.006629  p :     0.021670
      px      :     0.007052
      py      :     0.007989
  4 H s       :     0.825832  s :     0.825832
      pz      :     0.007714  p :     0.021630
      px      :     0.007090
      py      :     0.006826
  5 H s       :     0.677239  s :     0.677239
      pz      :     0.011239  p :     0.043686
      px      :     0.015482
      py      :     0.016965
  6 H s       :     0.673779  s :     0.673779
      pz      :     0.014736  p :     0.044805
      px      :     0.010013
      py      :     0.020056
  7 H s       :     0.677337  s :     0.677337
      pz      :     0.018716  p :     0.044381
      px      :     0.018379
      py      :     0.007286
  8 Pbs       :     3.251485  s :     3.251485
      pz      :     2.398909  p :     7.224888
      px      :     2.414795
      py      :     2.411184
      dz2     :     2.064128  d :    10.249129
      dxz     :     2.039197
      dyz     :     2.042515
      dx2y2   :     2.060183
      dxy     :     2.043105
      f0      :     0.025074  f :     0.116794
      f+1     :     0.015685
      f-1     :     0.016296
      f+2     :     0.013047
      f-2     :     0.001186
      f+3     :     0.022562
      f-3     :     0.022944
  9 Cls       :     5.963137  s :     5.963137
      pz      :     3.943454  p :    11.445528
      px      :     3.578994
      py      :     3.923080
      dz2     :     0.003284  d :     0.019157
      dxz     :     0.001963
      dyz     :     0.002514
      dx2y2   :     0.009415
      dxy     :     0.001982
      f0      :     0.000093  f :     0.000959
      f+1     :     0.000221
      f-1     :     0.000048
      f+2     :     0.000145
      f-2     :     0.000021
      f+3     :     0.000311
      f-3     :     0.000120
 10 Cls       :     5.963476  s :     5.963476
      pz      :     3.936167  p :    11.463483
      px      :     3.934710
      py      :     3.592606
      dz2     :     0.003031  d :     0.017348
      dxz     :     0.002666
      dyz     :     0.002107
      dx2y2   :     0.007645
      dxy     :     0.001899
      f0      :     0.000068  f :     0.000823
      f+1     :     0.000069
      f-1     :     0.000159
      f+2     :     0.000136
      f-2     :     0.000020
      f+3     :     0.000108
      f-3     :     0.000264
 11 Cls       :     5.962897  s :     5.962897
      pz      :     3.632257  p :    11.499704
      px      :     3.945474
      py      :     3.921973
      dz2     :     0.008885  d :     0.014844
      dxz     :     0.001517
      dyz     :     0.001596
      dx2y2   :     0.000799
      dxy     :     0.002046
      f0      :     0.000350  f :     0.000644
      f+1     :     0.000080
      f-1     :     0.000085
      f+2     :     0.000017
      f-2     :     0.000023
      f+3     :     0.000063
      f-3     :     0.000026
 12 Cls       :     5.963353  s :     5.963353
      pz      :     3.940446  p :    11.446970
      px      :     3.571995
      py      :     3.934529
      dz2     :     0.003453  d :     0.018494
      dxz     :     0.002411
      dyz     :     0.001207
      dx2y2   :     0.009221
      dxy     :     0.002202
      f0      :     0.000080  f :     0.001023
      f+1     :     0.000243
      f-1     :     0.000027
      f+2     :     0.000119
      f-2     :     0.000014
      f+3     :     0.000374
      f-3     :     0.000166
 13 Cls       :     5.963370  s :     5.963370
      pz      :     3.629217  p :    11.496433
      px      :     3.941615
      py      :     3.925600
      dz2     :     0.009069  d :     0.014479
      dxz     :     0.001615
      dyz     :     0.001907
      dx2y2   :     0.000516
      dxy     :     0.001372
      f0      :     0.000361  f :     0.000683
      f+1     :     0.000091
      f-1     :     0.000144
      f+2     :     0.000021
      f-2     :     0.000017
      f+3     :     0.000028
      f-3     :     0.000021
 14 Cls       :     5.962898  s :     5.962898
      pz      :     3.926897  p :    11.462357
      px      :     3.942470
      py      :     3.592990
      dz2     :     0.003188  d :     0.017468
      dxz     :     0.001498
      dyz     :     0.003009
      dx2y2   :     0.007874
      dxy     :     0.001899
      f0      :     0.000082  f :     0.000915
      f+1     :     0.000029
      f-1     :     0.000181
      f+2     :     0.000142
      f-2     :     0.000021
      f+3     :     0.000132
      f-3     :     0.000327
 15 N s       :     3.412626  s :     3.412626
      pz      :     1.288433  p :     3.824941
      px      :     1.280135
      py      :     1.256374
      dz2     :     0.004119  d :     0.046869
      dxz     :     0.012571
      dyz     :     0.011559
      dx2y2   :     0.006749
      dxy     :     0.011871
      f0      :     0.000111  f :     0.002179
      f+1     :     0.000194
      f-1     :     0.000193
      f+2     :     0.000198
      f-2     :     0.001062
      f+3     :     0.000210
      f-3     :     0.000211
 16 C s       :     3.275764  s :     3.275764
      pz      :     1.009149  p :     2.904975
      px      :     0.990189
      py      :     0.905638
      dz2     :     0.006122  d :     0.068562
      dxz     :     0.017983
      dyz     :     0.017393
      dx2y2   :     0.008697
      dxy     :     0.018367
      f0      :     0.000309  f :     0.005976
      f+1     :     0.000533
      f-1     :     0.000697
      f+2     :     0.000601
      f-2     :     0.002460
      f+3     :     0.000647
      f-3     :     0.000728
 17 H s       :     0.676693  s :     0.676693
      pz      :     0.012179  p :     0.037664
      px      :     0.009480
      py      :     0.016004
 18 H s       :     0.676210  s :     0.676210
      pz      :     0.010654  p :     0.039795
      px      :     0.014349
      py      :     0.014792
 19 H s       :     0.816068  s :     0.816068
      pz      :     0.007832  p :     0.021768
      px      :     0.007111
      py      :     0.006824
 20 H s       :     0.815951  s :     0.815951
      pz      :     0.006499  p :     0.021779
      px      :     0.007196
      py      :     0.008084
 21 H s       :     0.817827  s :     0.817827
      pz      :     0.008789  p :     0.021750
      px      :     0.008124
      py      :     0.004838
 22 H s       :     0.679293  s :     0.679293
      pz      :     0.016362  p :     0.038414
      px      :     0.015415
      py      :     0.006637


                     *******************************
                     * LOEWDIN POPULATION ANALYSIS *
                     *******************************

----------------------
LOEWDIN ATOMIC CHARGES
----------------------
   0 C :   -0.282268
   1 N :    0.068995
   2 H :    0.123186
   3 H :    0.123043
   4 H :    0.122425
   5 H :    0.149822
   6 H :    0.146153
   7 H :    0.147755
   8 Pb:   -0.418126
   9 Cl:   -0.109241
  10 Cl:   -0.144227
  11 Cl:   -0.212522
  12 Cl:   -0.110077
  13 Cl:   -0.195381
  14 Cl:   -0.138279
  15 N :    0.095958
  16 C :   -0.272017
  17 H :    0.179015
  18 H :    0.170210
  19 H :    0.126238
  20 H :    0.126661
  21 H :    0.125847
  22 H :    0.176830

-------------------------------
LOEWDIN REDUCED ORBITAL CHARGES
-------------------------------
  0 C s       :     2.853166  s :     2.853166
      pz      :     1.051012  p :     3.085443
      px      :     1.038056
      py      :     0.996376
      dz2     :     0.026833  d :     0.306562
      dxz     :     0.078590
      dyz     :     0.079271
      dx2y2   :     0.038538
      dxy     :     0.083329
      f0      :     0.004613  f :     0.037096
      f+1     :     0.003940
      f-1     :     0.005977
      f+2     :     0.003686
      f-2     :     0.006751
      f+3     :     0.005547
      f-3     :     0.006582
  1 N s       :     3.002141  s :     3.002141
      pz      :     1.258370  p :     3.763334
      px      :     1.255145
      py      :     1.249819
      dz2     :     0.014206  d :     0.156073
      dxz     :     0.041083
      dyz     :     0.039121
      dx2y2   :     0.021968
      dxy     :     0.039695
      f0      :     0.001243  f :     0.009456
      f+1     :     0.001128
      f-1     :     0.001452
      f+2     :     0.000961
      f-2     :     0.001720
      f+3     :     0.001316
      f-3     :     0.001634
  2 H s       :     0.814861  s :     0.814861
      pz      :     0.023570  p :     0.061953
      px      :     0.022117
      py      :     0.016266
  3 H s       :     0.815000  s :     0.815000
      pz      :     0.018855  p :     0.061958
      px      :     0.021439
      py      :     0.021664
  4 H s       :     0.815663  s :     0.815663
      pz      :     0.023225  p :     0.061912
      px      :     0.019899
      py      :     0.018789
  5 H s       :     0.717355  s :     0.717355
      pz      :     0.037864  p :     0.132823
      px      :     0.045741
      py      :     0.049218
  6 H s       :     0.717393  s :     0.717393
      pz      :     0.043635  p :     0.136454
      px      :     0.033445
      py      :     0.059373
  7 H s       :     0.717887  s :     0.717887
      pz      :     0.055896  p :     0.134359
      px      :     0.054402
      py      :     0.024061
  8 Pbs       :     3.078724  s :     3.078724
      pz      :     2.593332  p :     7.833231
      px      :     2.625699
      py      :     2.614200
      dz2     :     2.382761  d :    11.216234
      dxz     :     2.131407
      dyz     :     2.145629
      dx2y2   :     2.415286
      dxy     :     2.141150
      f0      :     0.063264  f :     0.289937
      f+1     :     0.038569
      f-1     :     0.039445
      f+2     :     0.030153
      f-2     :     0.002586
      f+3     :     0.057805
      f-3     :     0.058114
  9 Cls       :     5.753629  s :     5.753629
      pz      :     3.893735  p :    11.323923
      px      :     3.564065
      py      :     3.866123
      dz2     :     0.005162  d :     0.030013
      dxz     :     0.001979
      dyz     :     0.004664
      dx2y2   :     0.016097
      dxy     :     0.002110
      f0      :     0.000109  f :     0.001677
      f+1     :     0.000390
      f-1     :     0.000084
      f+2     :     0.000293
      f-2     :     0.000023
      f+3     :     0.000586
      f-3     :     0.000191
 10 Cls       :     5.768760  s :     5.768760
      pz      :     3.886629  p :    11.347482
      px      :     3.886179
      py      :     3.574674
      dz2     :     0.004555  d :     0.026573
      dxz     :     0.004646
      dyz     :     0.002525
      dx2y2   :     0.012678
      dxy     :     0.002169
      f0      :     0.000080  f :     0.001412
      f+1     :     0.000149
      f-1     :     0.000273
      f+2     :     0.000264
      f-2     :     0.000033
      f+3     :     0.000143
      f-3     :     0.000470
 11 Cls       :     5.791766  s :     5.791766
      pz      :     3.607515  p :    11.397874
      px      :     3.907423
      py      :     3.882935
      dz2     :     0.013969  d :     0.021824
      dxz     :     0.001448
      dyz     :     0.001735
      dx2y2   :     0.001037
      dxy     :     0.003635
      f0      :     0.000573  f :     0.001058
      f+1     :     0.000100
      f-1     :     0.000134
      f+2     :     0.000026
      f-2     :     0.000039
      f+3     :     0.000141
      f-3     :     0.000045
 12 Cls       :     5.748340  s :     5.748340
      pz      :     3.891484  p :    11.331924
      px      :     3.557038
      py      :     3.883402
      dz2     :     0.005580  d :     0.028163
      dxz     :     0.002580
      dyz     :     0.001744
      dx2y2   :     0.015770
      dxy     :     0.002490
      f0      :     0.000080  f :     0.001651
      f+1     :     0.000452
      f-1     :     0.000043
      f+2     :     0.000154
      f-2     :     0.000012
      f+3     :     0.000715
      f-3     :     0.000195
 13 Cls       :     5.783507  s :     5.783507
      pz      :     3.604465  p :    11.389873
      px      :     3.901301
      py      :     3.884107
      dz2     :     0.014429  d :     0.020953
      dxz     :     0.001489
      dyz     :     0.002167
      dx2y2   :     0.000624
      dxy     :     0.002243
      f0      :     0.000609  f :     0.001048
      f+1     :     0.000103
      f-1     :     0.000200
      f+2     :     0.000025
      f-2     :     0.000017
      f+3     :     0.000054
      f-3     :     0.000039
 14 Cls       :     5.757678  s :     5.757678
      pz      :     3.881406  p :    11.352886
      px      :     3.896379
      py      :     3.575101
      dz2     :     0.004732  d :     0.026257
      dxz     :     0.001952
      dyz     :     0.004080
      dx2y2   :     0.013257
      dxy     :     0.002235
      f0      :     0.000109  f :     0.001458
      f+1     :     0.000053
      f-1     :     0.000311
      f+2     :     0.000213
      f-2     :     0.000032
      f+3     :     0.000138
      f-3     :     0.000602
 15 N s       :     2.997922  s :     2.997922
      pz      :     1.250831  p :     3.741009
      px      :     1.248145
      py      :     1.242033
      dz2     :     0.014153  d :     0.155842
      dxz     :     0.040713
      dyz     :     0.038546
      dx2y2   :     0.022455
      dxy     :     0.039975
      f0      :     0.001201  f :     0.009270
      f+1     :     0.001099
      f-1     :     0.001519
      f+2     :     0.000947
      f-2     :     0.001526
      f+3     :     0.001271
      f-3     :     0.001707
 16 C s       :     2.854225  s :     2.854225
      pz      :     1.053559  p :     3.081280
      px      :     1.040928
      py      :     0.986792
      dz2     :     0.026101  d :     0.299700
      dxz     :     0.076151
      dyz     :     0.077174
      dx2y2   :     0.037405
      dxy     :     0.082868
      f0      :     0.004559  f :     0.036812
      f+1     :     0.003703
      f-1     :     0.006060
      f+2     :     0.003604
      f-2     :     0.006683
      f+3     :     0.005577
      f-3     :     0.006627
 17 H s       :     0.709047  s :     0.709047
      pz      :     0.034994  p :     0.111938
      px      :     0.031576
      py      :     0.045368
 18 H s       :     0.711025  s :     0.711025
      pz      :     0.035500  p :     0.118765
      px      :     0.041408
      py      :     0.041857
 19 H s       :     0.811401  s :     0.811401
      pz      :     0.023630  p :     0.062362
      px      :     0.020007
      py      :     0.018725
 20 H s       :     0.810977  s :     0.810977
      pz      :     0.018584  p :     0.062362
      px      :     0.021939
      py      :     0.021840
 21 H s       :     0.811854  s :     0.811854
      pz      :     0.024337  p :     0.062299
      px      :     0.022533
      py      :     0.015430
 22 H s       :     0.709160  s :     0.709160
      pz      :     0.047662  p :     0.114009
      px      :     0.044486
      py      :     0.021862


                      *****************************
                      * MAYER POPULATION ANALYSIS *
                      *****************************

  NA   - Mulliken gross atomic population
  ZA   - Total nuclear charge
  QA   - Mulliken gross atomic charge
  VA   - Mayer's total valence
  BVA  - Mayer's bonded valence
  FA   - Mayer's free valence

  ATOM       NA         ZA         QA         VA         BVA        FA
  0 C      6.2542     6.0000    -0.2542     3.8529     3.8529     0.0000
  1 N      7.2967     7.0000    -0.2967     3.2777     3.2777     0.0000
  2 H      0.8461     1.0000     0.1539     0.9625     0.9625    -0.0000
  3 H      0.8463     1.0000     0.1537     0.9623     0.9623     0.0000
  4 H      0.8475     1.0000     0.1525     0.9618     0.9618     0.0000
  5 H      0.7209     1.0000     0.2791     0.9911     0.9911     0.0000
  6 H      0.7186     1.0000     0.2814     0.9796     0.9796    -0.0000
  7 H      0.7217     1.0000     0.2783     0.9823     0.9823     0.0000
  8 Pb    20.8423    22.0000     1.1577     3.6625     3.6625    -0.0000
  9 Cl    17.4288    17.0000    -0.4288     0.9238     0.9238    -0.0000
 10 Cl    17.4451    17.0000    -0.4451     0.9054     0.9054    -0.0000
 11 Cl    17.4781    17.0000    -0.4781     0.8632     0.8632    -0.0000
 12 Cl    17.4298    17.0000    -0.4298     0.9168     0.9168     0.0000
 13 Cl    17.4750    17.0000    -0.4750     0.8655     0.8655    -0.0000
 14 Cl    17.4436    17.0000    -0.4436     0.9013     0.9013     0.0000
 15 N      7.2866     7.0000    -0.2866     3.3506     3.3506    -0.0000
 16 C      6.2553     6.0000    -0.2553     3.8276     3.8276     0.0000
 17 H      0.7144     1.0000     0.2856     0.9708     0.9708    -0.0000
 18 H      0.7160     1.0000     0.2840     0.9821     0.9821     0.0000
 19 H      0.8378     1.0000     0.1622     0.9599     0.9599    -0.0000
 20 H      0.8377     1.0000     0.1623     0.9605     0.9605     0.0000
 21 H      0.8396     1.0000     0.1604     0.9607     0.9607     0.0000
 22 H      0.7177     1.0000     0.2823     0.9813     0.9813    -0.0000

  Mayer bond orders larger than 0.1
B(  0-C ,  1-N ) :   0.9117 B(  0-C ,  2-H ) :   0.9719 B(  0-C ,  3-H ) :   0.9716 
B(  0-C ,  4-H ) :   0.9716 B(  1-N ,  5-H ) :   0.8113 B(  1-N ,  6-H ) :   0.8158 
B(  1-N ,  7-H ) :   0.8187 B(  5-H , 11-Cl) :   0.1806 B(  6-H ,  9-Cl) :   0.1630 
B(  7-H , 10-Cl) :   0.1621 B(  8-Pb,  9-Cl) :   0.6181 B(  8-Pb, 10-Cl) :   0.6039 
B(  8-Pb, 11-Cl) :   0.5659 B(  8-Pb, 12-Cl) :   0.6507 B(  8-Pb, 13-Cl) :   0.5888 
B(  8-Pb, 14-Cl) :   0.6298 B( 12-Cl, 17-H ) :   0.1206 B( 13-Cl, 18-H ) :   0.1490 
B( 14-Cl, 22-H ) :   0.1412 B( 15-N , 16-C ) :   0.9052 B( 15-N , 17-H ) :   0.8445 
B( 15-N , 18-H ) :   0.8284 B( 15-N , 22-H ) :   0.8360 B( 16-C , 19-H ) :   0.9679 
B( 16-C , 20-H ) :   0.9680 B( 16-C , 21-H ) :   0.9685 

-------
TIMINGS
-------

Total SCF time: 0 days 0 hours 11 min 39 sec 

Total time                  ....     699.193 sec
Sum of individual times     ....     585.483 sec  ( 83.7%)

Fock matrix formation       ....     567.472 sec  ( 81.2%)
  Coulomb formation         ....     502.943 sec  ( 88.6% of F)
  Split-RI-J                ....      39.345 sec  (  6.9% of F)
  Chain of spheres X        ....     573.927 sec  (101.1% of F)
  COS-X 1 center corr.      ....       0.000 sec  (  0.0% of F)
  XC integration            ....      64.646 sec  ( 11.4% of F)
    Basis function eval.    ....      25.059 sec  ( 38.8% of XC)
    Density eval.           ....      17.028 sec  ( 26.3% of XC)
    XC-Functional eval.     ....       3.601 sec  (  5.6% of XC)
    XC-Potential eval.      ....      17.429 sec  ( 27.0% of XC)
Diagonalization             ....       0.347 sec  (  0.0%)
Density matrix formation    ....       0.149 sec  (  0.0%)
Population analysis         ....       0.403 sec  (  0.1%)
Initial guess               ....       2.011 sec  (  0.3%)
Orbital Transformation      ....       0.000 sec  (  0.0%)
Orbital Orthonormalization  ....       1.992 sec  (  0.3%)
DIIS solution               ....       0.099 sec  (  0.0%)
SOSCF solution              ....       0.944 sec  (  0.1%)
Grid generation             ....      14.057 sec  (  2.0%)

------------------------------------------------------------------------------
                              ORCA MP2 CALCULATION
------------------------------------------------------------------------------


----------------------
RI-MP2 ENERGY+GRADIENT
----------------------
Dimension of the basis                    ...  468
Memory devoted to MP2                     ... 1000 MB   
Data format for buffers                   ... DOUBLE
Compression type for matrix containers    ... UNCOMPRESSED
Overall scaling of the MP2 energy         ...   2.700e-01 Eh
Calculating two index integrals           ... done (    0.035 sec)
Cholesky decomposition of the V-matrix    ... done
Cholesky decomposition of V**-1           ... done (    0.139 sec)

-----------------
RI-TRANSFORMATION (AUX index driven)
-----------------

Dimension of the orbital-basis         ... 468
Dimension of the aux-basis             ... 810
Transformation of internal MOs         ...    0-  80
Transformation of internal/external MOs...    0-  80 to   81- 467
Number Format for Storage              ... Double (8 Byte)
Integral mode                          ... Direct

First Phase: integral generation and transformation of MO indices
  Aux angular momentum 0               ... done (    3.325 sec)
  Aux angular momentum 1               ... done (    3.184 sec)
  Aux angular momentum 2               ... done (    4.004 sec)
  Aux angular momentum 3               ... done (    1.905 sec)
  Aux angular momentum 4               ... done (    1.861 sec)
Closing buffer VIJ ( 0.02 GB; CompressionRatio= 1.97)
Closing buffer VIA ( 0.19 GB; CompressionRatio= 1.00)
  Phase 1 completed in    14.442 sec
Second Phase: sorting and transformation of aux index

IJ-Transformation
Memory available                       ... 972 MB 
Max. # MO pairs treated in a batch     ... 81    
# of internal orbitals                 ... 81
# batches for internal orbitals        ... 1
Closing buffer IJV ( 0.02 GB; CompressionRatio= 1.00)
(ij|v) transformation done in     1.197 sec

IA-Transformation
Memory available                       ... 972 MB 
Max. # MO pairs treated in a batch     ... 81    
# of internal orbitals                 ... 81
# batches for internal orbitals        ... 1
Closing buffer IAV ( 0.19 GB; CompressionRatio= 1.00)
(ia|v) transformation done in     5.066 sec

  Phase 2 completed in     8.041 sec
RI-Integral transformation completed in    22.486 sec
Opening buffers                              ... done

Starting loop over batches of integrals:

Operator 0  - window                       ... (  0- 80)x( 81-467)
Operator 0  - Memory available             ...  1000 MB
Operator 0  - Memory needed per MO         ...   4.8 MB
Operator 0  - Number of orbitals per batch ... 81
Operator 0  - Number of batches            ... 1

OPERATOR  0   PASS   0:  MOs     0 ...   80
  Reading integrals       ... ok
  Internal MO   2
  Internal MO   5
  Internal MO   8
  Internal MO  11
  Internal MO  14
  Internal MO  17
  Internal MO  20
  Internal MO  23
  Internal MO  26
  Internal MO  29
  Internal MO  32
  Internal MO  35
  Internal MO  38
  Internal MO  41
  Internal MO  44
  Internal MO  47
  Internal MO  50
  Internal MO  53
  Internal MO  56
  Internal MO  59
  Internal MO  62
  Internal MO  65
  Internal MO  68
  Internal MO  71
  Internal MO  74
  Internal MO  77
  Internal MO  80
Closing buffer GIPV ( 0.23 GB; CompressionRatio= 1.00)
Time spent in pair loops =  1313.623 sec

-----------------------------------------------
 RI-MP2 CORRELATION ENERGY:     -1.011489037 Eh
-----------------------------------------------


---------------------
MP2 DENSITY FORMATION
---------------------

Completing the external part of the density      ... done
Storing the unrelaxed density                    ... done

Calculating the xc-kernel                        ... done
Calculating G(D)                                 ... done
Completing the Lagrangian                        ... done
Solving the Z-vector equations                   ... 

------------------------------------------------------------------------------
                           ORCA CP-SCF CALCULATION
------------------------------------------------------------------------------

Input orbitals are from        ... PbCl6_MA2_mp2_sp_9.orca.gbw
Input Perturbation             ... PbCl6_MA2_mp2_sp_9.orca.pin.tmp
Wavefunction output            ... PbCl6_MA2_mp2_sp_9.orca.pout.tmp
Perturbation mode              ... Real perturbation
Solver                         ... POPLE
Max. number of iterations      ... 128
Convergence tolerance          ... 1.000e-08
[...]
      pz      :     0.008903  p :     0.022378
      px      :     0.008281
      py      :     0.005194
 22 H s       :     0.685614  s :     0.685614
      pz      :     0.016298  p :     0.038567
      px      :     0.015385
      py      :     0.006884


                     *******************************
                     * LOEWDIN POPULATION ANALYSIS *
                     *******************************

----------------------
LOEWDIN ATOMIC CHARGES
----------------------
   0 C :   -0.295017
   1 N :    0.063855
   2 H :    0.126002
   3 H :    0.125864
   4 H :    0.125306
   5 H :    0.147375
   6 H :    0.143907
   7 H :    0.145529
   8 Pb:   -0.498899
   9 Cl:   -0.092376
  10 Cl:   -0.125338
  11 Cl:   -0.189492
  12 Cl:   -0.094254
  13 Cl:   -0.175055
  14 Cl:   -0.120722
  15 N :    0.090954
  16 C :   -0.284373
  17 H :    0.177010
  18 H :    0.167892
  19 H :    0.129073
  20 H :    0.129490
  21 H :    0.128699
  22 H :    0.174569

-------------------------------
LOEWDIN REDUCED ORBITAL CHARGES
-------------------------------
  0 C s       :     2.853840  s :     2.853840
      pz      :     1.052796  p :     3.091477
      px      :     1.039965
      py      :     0.998717
      dz2     :     0.028805  d :     0.311063
      dxz     :     0.078832
      dyz     :     0.079535
      dx2y2   :     0.040476
      dxy     :     0.083415
      f0      :     0.004827  f :     0.038637
      f+1     :     0.004139
      f-1     :     0.006165
      f+2     :     0.003870
      f-2     :     0.007106
      f+3     :     0.005755
      f-3     :     0.006774
  1 N s       :     3.003762  s :     3.003762
      pz      :     1.255521  p :     3.753608
      px      :     1.252100
      py      :     1.245987
      dz2     :     0.016492  d :     0.167883
      dxz     :     0.043499
      dyz     :     0.041521
      dx2y2   :     0.024331
      dxy     :     0.042040
      f0      :     0.001441  f :     0.010892
      f+1     :     0.001313
      f-1     :     0.001633
      f+2     :     0.001144
      f-2     :     0.002020
      f+3     :     0.001520
      f-3     :     0.001822
  2 H s       :     0.810092  s :     0.810092
      pz      :     0.024212  p :     0.063906
      px      :     0.022766
      py      :     0.016928
  3 H s       :     0.810221  s :     0.810221
      pz      :     0.019482  p :     0.063915
      px      :     0.022097
      py      :     0.022337
  4 H s       :     0.810813  s :     0.810813
      pz      :     0.023889  p :     0.063880
      px      :     0.020541
      py      :     0.019450
  5 H s       :     0.718588  s :     0.718588
      pz      :     0.038284  p :     0.134037
      px      :     0.046148
      py      :     0.049605
  6 H s       :     0.718408  s :     0.718408
      pz      :     0.044057  p :     0.137685
      px      :     0.033888
      py      :     0.059740
  7 H s       :     0.718850  s :     0.718850
      pz      :     0.056311  p :     0.135621
      px      :     0.054797
      py      :     0.024512
  8 Pbs       :     3.144841  s :     3.144841
      pz      :     2.605374  p :     7.860661
      px      :     2.632481
      py      :     2.622806
      dz2     :     2.366548  d :    11.172043
      dxz     :     2.128372
      dyz     :     2.141530
      dx2y2   :     2.397833
      dxy     :     2.137760
      f0      :     0.067087  f :     0.321355
      f+1     :     0.043177
      f-1     :     0.043935
      f+2     :     0.035164
      f-2     :     0.007514
      f+3     :     0.062132
      f-3     :     0.062347
  9 Cls       :     5.752505  s :     5.752505
      pz      :     3.874825  p :    11.265449
      px      :     3.544525
      py      :     3.846099
      dz2     :     0.013060  d :     0.069883
      dxz     :     0.009908
      dyz     :     0.012724
      dx2y2   :     0.024112
      dxy     :     0.010078
      f0      :     0.000503  f :     0.004539
      f+1     :     0.000807
      f-1     :     0.000474
      f+2     :     0.000707
      f-2     :     0.000413
      f+3     :     0.001030
      f-3     :     0.000605
 10 Cls       :     5.767576  s :     5.767576
      pz      :     3.867282  p :    11.287321
      px      :     3.866753
      py      :     3.553286
      dz2     :     0.012456  d :     0.066203
      dxz     :     0.012661
      dyz     :     0.010397
      dx2y2   :     0.020640
      dxy     :     0.010048
      f0      :     0.000472  f :     0.004239
      f+1     :     0.000542
      f-1     :     0.000683
      f+2     :     0.000673
      f-2     :     0.000421
      f+3     :     0.000547
      f-3     :     0.000899
 11 Cls       :     5.790596  s :     5.790596
      pz      :     3.580875  p :    11.333543
      px      :     3.889118
      py      :     3.863550
      dz2     :     0.021846  d :     0.061502
      dxz     :     0.009350
      dyz     :     0.009682
      dx2y2   :     0.008955
      dxy     :     0.011670
      f0      :     0.001013  f :     0.003850
      f+1     :     0.000500
      f-1     :     0.000539
      f+2     :     0.000410
      f-2     :     0.000426
      f+3     :     0.000532
      f-3     :     0.000429
 12 Cls       :     5.747177  s :     5.747177
      pz      :     3.872162  p :    11.274820
      px      :     3.538766
      py      :     3.863893
      dz2     :     0.013459  d :     0.067753
      dxz     :     0.010474
      dyz     :     0.009649
      dx2y2   :     0.023707
      dxy     :     0.010464
      f0      :     0.000472  f :     0.004503
      f+1     :     0.000875
      f-1     :     0.000424
      f+2     :     0.000561
      f-2     :     0.000398
      f+3     :     0.001163
      f-3     :     0.000609
 13 Cls       :     5.782297  s :     5.782297
      pz      :     3.581334  p :    11.328575
      px      :     3.882426
      py      :     3.864815
      dz2     :     0.022308  d :     0.060352
      dxz     :     0.009339
      dyz     :     0.010077
      dx2y2   :     0.008460
      dxy     :     0.010167
      f0      :     0.001054  f :     0.003831
      f+1     :     0.000503
      f-1     :     0.000609
      f+2     :     0.000409
      f-2     :     0.000401
      f+3     :     0.000436
      f-3     :     0.000419
 14 Cls       :     5.756567  s :     5.756567
      pz      :     3.861617  p :    11.293946
      px      :     3.877396
      py      :     3.554933
      dz2     :     0.012659  d :     0.065913
      dxz     :     0.009859
      dyz     :     0.011979
      dx2y2   :     0.021236
      dxy     :     0.010181
      f0      :     0.000503  f :     0.004296
      f+1     :     0.000438
      f-1     :     0.000728
      f+2     :     0.000621
      f-2     :     0.000420
      f+3     :     0.000545
      f-3     :     0.001040
 15 N s       :     2.999145  s :     2.999145
      pz      :     1.248475  p :     3.732539
      px      :     1.245547
      py      :     1.238517
      dz2     :     0.016349  d :     0.166705
      dxz     :     0.042851
      dyz     :     0.040687
      dx2y2   :     0.024712
      dxy     :     0.042106
      f0      :     0.001392  f :     0.010658
      f+1     :     0.001279
      f-1     :     0.001696
      f+2     :     0.001127
      f-2     :     0.001804
      f+3     :     0.001470
      f-3     :     0.001890
 16 C s       :     2.854852  s :     2.854852
      pz      :     1.055245  p :     3.087295
      px      :     1.042768
      py      :     0.989282
      dz2     :     0.028007  d :     0.303893
      dxz     :     0.076373
      dyz     :     0.077378
      dx2y2   :     0.039240
      dxy     :     0.082895
      f0      :     0.004765  f :     0.038333
      f+1     :     0.003907
      f-1     :     0.006250
      f+2     :     0.003793
      f-2     :     0.007020
      f+3     :     0.005779
      f-3     :     0.006819
 17 H s       :     0.709770  s :     0.709770
      pz      :     0.035443  p :     0.113220
      px      :     0.031954
      py      :     0.045824
 18 H s       :     0.712110  s :     0.712110
      pz      :     0.035874  p :     0.119997
      px      :     0.041831
      py      :     0.042292
 19 H s       :     0.806664  s :     0.806664
      pz      :     0.024275  p :     0.064263
      px      :     0.020624
      py      :     0.019364
 20 H s       :     0.806259  s :     0.806259
      pz      :     0.019187  p :     0.064251
      px      :     0.022585
      py      :     0.022480
 21 H s       :     0.807101  s :     0.807101
      pz      :     0.024956  p :     0.064200
      px      :     0.023155
      py      :     0.016089
 22 H s       :     0.710152  s :     0.710152
      pz      :     0.048110  p :     0.115278
      px      :     0.044919
      py      :     0.022250


                      *****************************
                      * MAYER POPULATION ANALYSIS *
                      *****************************

  NA   - Mulliken gross atomic population
  ZA   - Total nuclear charge
  QA   - Mulliken gross atomic charge
  VA   - Mayer's total valence
  BVA  - Mayer's bonded valence
  FA   - Mayer's free valence

  ATOM       NA         ZA         QA         VA         BVA        FA
  0 C      6.2781     6.0000    -0.2781     3.9006     3.7854     0.1151
  1 N      7.2921     7.0000    -0.2921     3.3597     3.2150     0.1447
  2 H      0.8412     1.0000     0.1588     0.9640     0.9455     0.0185
  3 H      0.8413     1.0000     0.1587     0.9637     0.9453     0.0185
  4 H      0.8423     1.0000     0.1577     0.9633     0.9448     0.0185
  5 H      0.7283     1.0000     0.2717     0.9987     0.9778     0.0209
  6 H      0.7253     1.0000     0.2747     0.9869     0.9664     0.0205
  7 H      0.7285     1.0000     0.2715     0.9897     0.9690     0.0206
  8 Pb    20.9813    22.0000     1.0187     3.8887     3.5263     0.3624
  9 Cl    17.3993    17.0000    -0.3993     1.1947     0.9206     0.2741
 10 Cl    17.4140    17.0000    -0.4140     1.1784     0.9042     0.2742
 11 Cl    17.4435    17.0000    -0.4435     1.1433     0.8694     0.2739
 12 Cl    17.4014    17.0000    -0.4014     1.1855     0.9125     0.2730
 13 Cl    17.4428    17.0000    -0.4428     1.1409     0.8684     0.2725
 14 Cl    17.4137    17.0000    -0.4137     1.1731     0.9004     0.2728
 15 N      7.2809     7.0000    -0.2809     3.4265     3.2858     0.1408
 16 C      6.2784     6.0000    -0.2784     3.8749     3.7610     0.1139
 17 H      0.7203     1.0000     0.2797     0.9789     0.9588     0.0201
 18 H      0.7229     1.0000     0.2771     0.9906     0.9703     0.0203
 19 H      0.8329     1.0000     0.1671     0.9612     0.9431     0.0182
 20 H      0.8327     1.0000     0.1673     0.9619     0.9437     0.0181
 21 H      0.8345     1.0000     0.1655     0.9620     0.9438     0.0182
 22 H      0.7242     1.0000     0.2758     0.9896     0.9692     0.0204

  Mayer bond orders larger than 0.1
B(  0-C ,  1-N ) :   0.8960 B(  0-C ,  2-H ) :   0.9538 B(  0-C ,  3-H ) :   0.9535 
B(  0-C ,  4-H ) :   0.9535 B(  1-N ,  5-H ) :   0.7926 B(  1-N ,  6-H ) :   0.7966 
B(  1-N ,  7-H ) :   0.7993 B(  5-H , 11-Cl) :   0.1872 B(  6-H ,  9-Cl) :   0.1703 
B(  7-H , 10-Cl) :   0.1695 B(  8-Pb,  9-Cl) :   0.5912 B(  8-Pb, 10-Cl) :   0.5788 
B(  8-Pb, 11-Cl) :   0.5467 B(  8-Pb, 12-Cl) :   0.6248 B(  8-Pb, 13-Cl) :   0.5690 
B(  8-Pb, 14-Cl) :   0.6064 B( 12-Cl, 17-H ) :   0.1277 B( 13-Cl, 18-H ) :   0.1563 
B( 14-Cl, 22-H ) :   0.1485 B( 15-N , 16-C ) :   0.8904 B( 15-N , 17-H ) :   0.8260 
B( 15-N , 18-H ) :   0.8101 B( 15-N , 22-H ) :   0.8174 B( 16-C , 19-H ) :   0.9501 
B( 16-C , 20-H ) :   0.9502 B( 16-C , 21-H ) :   0.9508 


-------
TIMINGS
-------

Total time                : 2581.041 sec
Integral trafo            :   22.504 sec (  0.9%)
I/O of integrals          :    2.658 sec (  0.1%)
K(i,j) Operators          :  171.871 sec (  6.7%)
T(i,j) pair energies      :   27.638 sec (  1.1%)
V-calculation             :    0.035 sec (  0.0%)
V**(-1/2)                 :    0.139 sec (  0.0%)
Gamma(ia|P)               :  159.771 sec (  6.2%)
Gamma-Trafo               :   11.037 sec (  0.4%)
D(virtual)                :   75.903 sec (  2.9%)
D(internal)               :  195.928 sec (  7.6%)
W(virtual)                :  149.986 sec (  5.8%)
W(internal)               :  431.883 sec ( 16.7%)
L(virtual)                :   74.648 sec (  2.9%)
L(internal)               :    5.160 sec (  0.2%)
G(D)                      :   59.019 sec (  2.3%)
G(Z)                      :   59.971 sec (  2.3%)
Z-Vector Solution         :  621.584 sec ( 24.1%)
Z-Vector Solution         :  621.584 sec ( 24.1%)
3-Index Derivative 
+ Separable RIJ part      :   32.425 sec (  1.3%)
2-Index Derivative 
+ Separable RIJ part      :    0.165 sec (  0.0%)
Separable Gradient (COSX) :  463.621 sec ( 18.0%)


---------------------------------------
MP2 TOTAL ENERGY:    -3146.408469844 Eh
---------------------------------------

The final MP2 gradient
  0:   0.00150658   0.00162024   0.00102009
  1:  -0.00270617  -0.00521452  -0.00225093
  2:   0.00278800  -0.00210355   0.00283054
  3:  -0.00288747   0.00266107   0.00212128
  4:   0.00232487   0.00217600  -0.00300096
  5:  -0.00290250  -0.00199861  -0.00027002
  6:   0.00161062  -0.00555576  -0.00486990
  7:  -0.00495548  -0.00045578  -0.00497520
  8:  -0.00208965   0.00106311  -0.00541914
  9:   0.00711312   0.00634211   0.00688477
 10:   0.00311732   0.01320837   0.00343117
 11:   0.00238514   0.00053027   0.01591147
 12:  -0.00305625  -0.00019554   0.00391633
 13:   0.00193838  -0.00204393  -0.01537207
 14:   0.00088240  -0.00496099   0.00554896
 15:  -0.00451079  -0.00765846  -0.00743526
 16:   0.00073435   0.00060929  -0.00005681
 17:  -0.00420740   0.00595395   0.00355203
 18:   0.00176650   0.00240432  -0.00288396
 19:  -0.00260340  -0.00251124   0.00291472
 20:   0.00257520  -0.00324108  -0.00241496
 21:  -0.00312887   0.00163552  -0.00320502
 22:   0.00461599  -0.00256783   0.00444540

-----------------------------------
NORM OF THE MP2 GRADIENT:  0.038864
-----------------------------------

Entering the calculation of the dispersion correction...

Checking the input atom types...

Done


-------------------------------------------------------------------------------
                          DFT DISPERSION CORRECTION                            
                                                                               
                                DFTD3 V2.1  Rev 6                               
                          USING Becke-Johnson damping                          
-------------------------------------------------------------------------------
The B2PLYP functional is recognized
Active option DFTDOPT                   ...         4   

molecular C6(AA) [au] = 13360.228801 


            DFT-D V3
 parameters
 s6 scaling factor         :     0.6400 
 a1 scaling factor         :     0.3065 
 s8 scaling factor         :     0.9147 
 a2 scaling factor         :     5.0570 
 ad hoc parameters k1-k3   :    16.0000     1.3333    -4.0000 

 Edisp/kcal,au: -19.078772079951  -0.030403955372 
 E6   /kcal   :  -8.896795891 
 E8   /kcal   : -10.181976189 
 % E8         :  53.368089659 

-------------------------   ----------------
Dispersion correction           -0.030403955
-------------------------   ----------------


-------------------------   --------------------
FINAL SINGLE POINT ENERGY     -3146.438873799036
-------------------------   --------------------


                            ***************************************
                            *     ORCA property calculations      *
                            ***************************************


  WARNING: The energy has been calculated at the MP2 level but the densities
           used in the property calculations are still SCF densities
           MP2 response densities have not been calculated 
           use %mp2 Density relaxed end
           or  %mp2 Density unrelaxed end

                                    ---------------------
                                    Active property flags
                                    ---------------------
   (+) Dipole Moment


------------------------------------------------------------------------------
                       ORCA ELECTRIC PROPERTIES CALCULATION
------------------------------------------------------------------------------

Dipole Moment Calculation                       ... on
Quadrupole Moment Calculation                   ... off
Polarizability Calculation                      ... off
GBWName                                         ... PbCl6_MA2_mp2_sp_9.orca.gbw
Electron density file                           ... PbCl6_MA2_mp2_sp_9.orca.scfp.tmp

-------------
DIPOLE MOMENT
-------------
                                X             Y             Z
Electronic contribution:      0.69273       3.77498      -3.00629
Nuclear contribution   :     -1.23822      -4.34800       2.31219
                        -----------------------------------------
Total Dipole Moment    :     -0.54549      -0.57302      -0.69409
                        -----------------------------------------
Magnitude (a.u.)       :      1.05246
Magnitude (Debye)      :      2.67514


                         *** MP2 UNRELAXED DENSITY ***

------------------------------------------------------------------------------
                       ORCA ELECTRIC PROPERTIES CALCULATION
------------------------------------------------------------------------------

Dipole Moment Calculation                       ... on
Quadrupole Moment Calculation                   ... off
Polarizability Calculation                      ... off
GBWName                                         ... PbCl6_MA2_mp2_sp_9.orca.gbw
Electron density file                           ... PbCl6_MA2_mp2_sp_9.orca.pmp2ur

-------------
DIPOLE MOMENT
-------------
                                X             Y             Z
Electronic contribution:      0.69360       3.77354      -3.00086
Nuclear contribution   :     -1.23822      -4.34800       2.31219
                        -----------------------------------------
Total Dipole Moment    :     -0.54463      -0.57446      -0.68867
                        -----------------------------------------
Magnitude (a.u.)       :      1.04923
Magnitude (Debye)      :      2.66694


                           *** MP2 RELAXED DENSITY ***

------------------------------------------------------------------------------
                       ORCA ELECTRIC PROPERTIES CALCULATION
------------------------------------------------------------------------------

Dipole Moment Calculation                       ... on
Quadrupole Moment Calculation                   ... off
Polarizability Calculation                      ... off
GBWName                                         ... PbCl6_MA2_mp2_sp_9.orca.gbw
Electron density file                           ... PbCl6_MA2_mp2_sp_9.orca.pmp2re

-------------
DIPOLE MOMENT
-------------
                                X             Y             Z
Electronic contribution:      0.69877       3.77476      -2.98233
Nuclear contribution   :     -1.23822      -4.34800       2.31219
                        -----------------------------------------
Total Dipole Moment    :     -0.53945      -0.57324      -0.67014
                        -----------------------------------------
Magnitude (a.u.)       :      1.03378
Magnitude (Debye)      :      2.62767


Timings for individual modules:

Sum of individual times         ...     3293.419 sec (=  54.890 min)
GTO integral calculation        ...        7.708 sec (=   0.128 min)   0.2 %
SCF iterations                  ...      702.680 sec (=  11.711 min)  21.3 %
MP2 module                      ...     2583.030 sec (=  43.051 min)  78.4 %
                             ****ORCA TERMINATED NORMALLY****
TOTAL RUN TIME: 0 days 0 hours 54 minutes 55 seconds 730 msec
