
                                 *****************
                                 * O   R   C   A *
                                 *****************

           --- An Ab Initio, DFT and Semiempirical electronic structure package ---

                  #######################################################
                  #                        -***-                        #
                  #  Department of molecular theory and spectroscopy    #
                  #              Directorship: Frank Neese              #
                  # Max Planck Institute for Chemical Energy Conversion #
                  #                  D-45470 Muelheim/Ruhr              #
                  #                       Germany                       #
                  #                                                     #
                  #                  All rights reserved                #
                  #                        -***-                        #
                  #######################################################


                         Program Version 3.0.3 - RELEASE   -


 With contributions from (in alphabetic order):
   Ute Becker             : Parallelization
   Dmytro Bykov           : SCF Hessian
   Dmitry Ganyushin       : Spin-Orbit,Spin-Spin,Magnetic field MRCI
   Andreas Hansen         : Spin unrestricted coupled pair/coupled cluster methods
   Dimitrios Liakos       : Extrapolation schemes; parallel MDCI
   Robert Izsak           : Overlap fitted RIJCOSX, COSX-SCS-MP3
   Christian Kollmar      : KDIIS, OOCD, Brueckner-CCSD(T), CCSD density
   Simone Kossmann        : Meta GGA functionals, TD-DFT gradient, OOMP2, MP2 Hessian
   Taras Petrenko         : DFT Hessian,TD-DFT gradient, ASA and ECA modules, normal mode analysis, Resonance Raman, ABS, FL, XAS/XES, NRVS
   Christoph Reimann      : Effective Core Potentials
   Michael Roemelt        : Restricted open shell CIS
   Christoph Riplinger    : Improved optimizer, TS searches, QM/MM, DLPNO-CCSD
   Barbara Sandhoefer     : DKH picture change effects
   Igor Schapiro          : Molecular dynamics
   Kantharuban Sivalingam : CASSCF convergence, NEVPT2
   Boris Wezisla          : Elementary symmetry handling
   Frank Wennmohs         : Technical directorship


 We gratefully acknowledge several colleagues who have allowed us to
 interface, adapt or use parts of their codes:
   Stefan Grimme, W. Hujo, H. Kruse, T. Risthaus : VdW corrections, initial TS optimization,
                                                   DFT functionals, gCP
   Ed Valeev                                     : LibInt (2-el integral package), F12 methods
   Garnet Chan, S. Sharma, R. Olivares           : DMRG
   Ulf Ekstrom                                   : XCFun DFT Library
   Mihaly Kallay                                 : mrcc  (arbitrary order and MRCC methods)
   Andreas Klamt, Michael Diedenhofen            : otool_cosmo (COSMO solvation model)
   Frank Weinhold                                : gennbo (NPA and NBO analysis)
   Christopher J. Cramer and Donald G. Truhlar   : smd solvation model


 Your calculation uses the libint2 library for the computation of 2-el integrals
 For citations please refer to: http://libint.valeyev.net

 This ORCA versions uses:
   CBLAS   interface :  Fast vector & matrix operations
   LAPACKE interface :  Fast linear algebra routines
   SCALAPACK package :  Parallel linear algebra routines


Your calculation utilizes the basis: Ahlrichs-TZV
Cite in your paper:
H - Kr: A. Schaefer, H. Horn and R. Ahlrichs, J. Chem. Phys. 97, 2571 (1992).

The def2-TZV basis will be loaded
Cite in your paper:
 	F. Weigend, R. Ahlrichs, Phys. Chem. Chem. Phys. 2005, 7, 3297.

Your calculation utilizes the atom-pairwise dispersion correction
with the Becke-Johnson damping scheme (D3BJ)
Cite in your paper:
S.Grimme, S.Ehrlich, L.Goerigk, J Comput Chem, (2011), 32, 1456–1465 
S.Grimme, J.Antony, S.Ehrlich and H.Krieg, J.Chem.Phys., 132, (2010), 154104 
   

================================================================================
                                        WARNINGS
                       Please study these warnings very carefully!
================================================================================

WARNING: The RI method has been chosen with no auxiliary basis (AUX or GTOAUX in BASIS block)
        Standard TZV/J expansion basis used (GTOAUX=TZV_J)

Now building the actual basis set
cite the ECPs for Pb [SD(60,MDF)] as follows:
  B. Metz, H. Stoll, M. Dolg, J. Chem. Phys. 113, 2563 (2000).

ECP parameters for Pb [SD(60,MDF)] have been obtained from:
  pseudopotential library of the Stuttgart/Cologne group
  http://www.theochem.uni-stuttgart.de/pseudopotentials/

cite the ECP basis sets for Pb [DEF2-TZVP] as follows:
  F. Weigend, R. Ahlrichs; Phys. Chem. Chem. Phys. 7, 3297(2005).

ECP basis sets for Pb [DEF2-TZVP] have been obtained from:
  Turbomole basis set library
  ftp://ftp.chemie.uni-karlsruhe.de/pub/basen/



INFO   : the flag for use of LIBINT has been found!

================================================================================
                                       INPUT FILE
================================================================================
NAME = PbMACl3_mp2_2.orca
|  1> ! RIJCOSX RI-B2PLYP D3BJ def2-TZVP ECP{def2-TZVP} TIGHTSCF Grid5 FinalGrid6 SlowConv MORead
|  2> %method
|  3>  RunTyp Gradient
|  4>  end
|  5> %maxcore 1000
|  6> %moinp "previous.gbw"
|  7> *xyz 0 1
|  8> C 2.905719 3.576013 2.873338
|  9> N 2.134625 2.614408 2.046990
| 10> H 3.548796 3.021424 3.560517
| 11> H 2.209179 4.197444 3.440826
| 12> H 3.515705 4.204875 2.220874
| 13> H 1.516852 1.975028 2.601630
| 14> H 2.717740 1.973704 1.464858
| 15> H 1.486857 3.059076 1.361735
| 16> Pb 0.459138 0.131547 0.209487
| 17> Cl 2.715957 0.268387 0.089874
| 18> Cl -0.167414 2.735046 -0.108798
| 19> Cl -0.632542 0.320768 2.851419
| 20> *
| 21> 
| 22>                          ****END OF INPUT****
================================================================================

                     *******************************
                     * Energy+Gradient Calculation *
                     *******************************

---------------------------------
CARTESIAN COORDINATES (ANGSTROEM)
---------------------------------
  C      2.905719    3.576013    2.873338
  N      2.134625    2.614408    2.046990
  H      3.548796    3.021424    3.560517
  H      2.209179    4.197444    3.440826
  H      3.515705    4.204875    2.220874
  H      1.516852    1.975028    2.601630
  H      2.717740    1.973704    1.464858
  H      1.486857    3.059076    1.361735
  Pb     0.459138    0.131547    0.209487
  Cl     2.715957    0.268387    0.089874
  Cl    -0.167414    2.735046   -0.108798
  Cl    -0.632542    0.320768    2.851419

----------------------------
CARTESIAN COORDINATES (A.U.)
----------------------------
  NO LB      ZA    FRAG    MASS        X           Y           Z
   0 C     6.0000    0    12.011          5.491013132131525          6.757685221342137          5.429821910189021
   1 N     7.0000    0    14.007          4.033856648621652          4.940515122332791          3.868250498875463
   2 H     1.0000    0     1.008          6.706252545155202          5.709663894456884          6.728402025170893
   3 H     1.0000    0     1.008          4.174743290810016          7.932019622470954          6.502218814475724
   4 H     1.0000    0     1.008          6.643719617657614          7.946062177372124          4.196843637946225
   5 H     1.0000    0     1.008          2.866434865690719          3.732262026826222          4.916368201793546
   6 H     1.0000    0     1.008          5.135784303203143          3.729760029424910          2.768180445083617
   7 H     1.0000    0     1.008          2.809752530303751          5.780815862851287          2.573306216975256
   8 Pb   22.0000*   0   207.200  0.867645077676336  0.248587803738939  0.395873058616761
   9 Cl   17.0000    0    35.453          5.132414921506361          0.507177927904723          0.169837246560039
  10 Cl   17.0000    0    35.453         -0.316366610984292          5.168487903676784         -0.205598423918364
  11 Cl   17.0000    0    35.453         -1.195331148202816          0.606163672525652          5.388401003059601
* core charge reduced due to ECP

--------------------------------
INTERNAL COORDINATES (ANGSTROEM)
--------------------------------
 C      0   0   0   0.000000     0.000     0.000
 N      1   0   0   1.483955     0.000     0.000
 H      1   2   0   1.092397   109.099     0.000
 H      1   2   3   1.092423   109.061   240.173
 H      1   2   3   1.092364   109.305   120.114
 H      2   1   3   1.047891   114.015    60.210
 H      2   1   3   1.043744   114.712   299.789
 H      2   1   3   1.042549   114.361   179.707
 Pb     7   2   1   3.173450   100.332   175.797
 Cl     7   2   1   2.190591   145.842   175.464
 Cl     8   2   1   2.236979   146.077   189.156
 Cl     6   2   1   2.723759   152.170   157.033

---------------------------
INTERNAL COORDINATES (A.U.)
---------------------------
 C      0   0   0   0.000000     0.000     0.000
 N      1   0   0   2.804268     0.000     0.000
 H      1   2   0   2.064332   109.099     0.000
 H      1   2   3   2.064379   109.061   240.173
 H      1   2   3   2.064269   109.305   120.114
 H      2   1   3   1.980227   114.015    60.210
 H      2   1   3   1.972391   114.712   299.789
 H      2   1   3   1.970131   114.361   179.707
 Pb     7   2   1   5.996950   100.332   175.797
 Cl     7   2   1   4.139618   145.842   175.464
 Cl     8   2   1   4.227278   146.077   189.156
 Cl     6   2   1   5.147159   152.170   157.033

---------------------
BASIS SET INFORMATION
---------------------
There are 5 groups of distinct atoms

 Group   1 Type C   : 11s6p2d1f contracted to 5s3p2d1f pattern {62111/411/11/1}
 Group   2 Type N   : 11s6p2d1f contracted to 5s3p2d1f pattern {62111/411/11/1}
 Group   3 Type H   : 5s1p contracted to 3s1p pattern {311/1}
 Group   4 Type Pb  : 10s9p8d2f contracted to 6s5p3d2f pattern {421111/33111/611/11}
 Group   5 Type Cl  : 14s9p3d1f contracted to 5s5p2d1f pattern {73211/51111/21/1}

Atom   0C    basis set group =>   1
Atom   1N    basis set group =>   2
Atom   2H    basis set group =>   3
Atom   3H    basis set group =>   3
Atom   4H    basis set group =>   3
Atom   5H    basis set group =>   3
Atom   6H    basis set group =>   3
Atom   7H    basis set group =>   3
Atom   8Pb   basis set group =>   4
Atom   9Cl   basis set group =>   5
Atom  10Cl   basis set group =>   5
Atom  11Cl   basis set group =>   5
-------------------------------
AUXILIARY BASIS SET INFORMATION
-------------------------------
There are 5 groups of distinct atoms

 Group   1 Type C   : 12s5p4d2f1g contracted to 6s4p3d1f1g pattern {711111/2111/211/2/1}
 Group   2 Type N   : 12s5p4d2f1g contracted to 6s4p3d1f1g pattern {711111/2111/211/2/1}
 Group   3 Type H   : 5s2p1d contracted to 3s1p1d pattern {311/2/1}
 Group   4 Type Pb  : 31s12p8d6f3g contracted to 31s12p8d6f3g pattern {1111111111111111111111111111111/111111111111/11111111/111111/111}
 Group   5 Type Cl  : 14s5p5d2f1g contracted to 8s4p3d1f1g pattern {71111111/2111/311/2/1}

Atom   0C    basis set group =>   1
Atom   1N    basis set group =>   2
Atom   2H    basis set group =>   3
Atom   3H    basis set group =>   3
Atom   4H    basis set group =>   3
Atom   5H    basis set group =>   3
Atom   6H    basis set group =>   3
Atom   7H    basis set group =>   3
Atom   8Pb   basis set group =>   4
Atom   9Cl   basis set group =>   5
Atom  10Cl   basis set group =>   5
Atom  11Cl   basis set group =>   5

-------------------------
ECP PARAMETER INFORMATION
-------------------------

 Group 1, Type Pb ECP SD(60,MDF) (replacing 60 core electrons, lmax=5)

Atom   8Pb   ECP group =>   1


------------------------------------------------------------------------------
                           ORCA GTO INTEGRAL CALCULATION
                           -- RI-GTO INTEGRALS CHOSEN --
------------------------------------------------------------------------------

                         BASIS SET STATISTICS AND STARTUP INFO

Gaussian basis set:
 # of primitive gaussian shells          ...  186
 # of primitive gaussian functions       ...  420
 # of contracted shells                  ...  101
 # of contracted basis functions         ...  259
 Highest angular momentum                ...    3
 Maximum contraction depth               ...    7
Auxiliary gaussian basis set:
 # of primitive gaussian shells          ...  237
 # of primitive gaussian functions       ...  643
 # of contracted shells                  ...  171
 # of contracted aux-basis functions     ...  493
 Highest angular momentum                ...    4
 Maximum contraction depth               ...    7
Ratio of auxiliary to basis functions    ...  1.90
Integral package used                  ... LIBINT
 One Electron integrals                  
   ECP integrals                         ... done
 Ordering auxiliary basis shells         ... done
 Integral threshhold             Thresh  ...  2.500e-11
 Primitive cut-off               TCut    ...  2.500e-12
 Pre-screening matrix                    ... done
 Shell pair data                         ... 
 Ordering of the shell pairs             ... done (   0.001 sec) 4369 of 5151 pairs
 Determination of significant pairs      ... done (   0.000 sec)
 Creation of shell pair data             ... done (   0.002 sec)
 Storage of shell pair data              ... done (   0.002 sec)
 Shell pair data done in (   0.005 sec)
 Computing two index integrals           ... done
 Cholesky decomposition of the V-matrix  ... done


Timings:
 Total evaluation time                   ...   0.844 sec (  0.014 min)
 One electron matrix time                ...   0.373 sec (  0.006 min) = 44.2%
 Schwartz matrix evaluation time         ...   0.401 sec (  0.007 min) = 47.5%
 Two index repulsion integral time       ...   0.013 sec (  0.000 min) =  1.5%
 Cholesky decomposition of V             ...   0.013 sec (  0.000 min) =  1.6%
 Three index repulsion integral time     ...   0.000 sec (  0.000 min) =  0.0%

-------------------------------------------------------------------------------
                                 ORCA SCF
-------------------------------------------------------------------------------

------------
SCF SETTINGS
------------
Hamiltonian:
 Density Functional     Method          .... DFT(GTOs)
 Exchange Functional    Exchange        .... B88
   X-Alpha parameter    XAlpha          ....  0.666667
   Becke's b parameter  XBeta           ....  0.004200
 Correlation Functional Correlation     .... LYP
 LDA part of GGA corr.  LDAOpt          .... VWN-3
 Gradients option       PostSCFGGA      .... off
 Hybrid DFT is turned on
   Fraction HF Exchange ScalHFX         ....  0.530000
   Scaling of DF-GGA-X  ScalDFX         ....  0.470000
   Scaling of DF-GGA-C  ScalDFC         ....  0.730000
   Scaling of DF-LDA-C  ScalLDAC        ....  0.730000
   Perturbative correction              ....  0.270000
 RI-approximation to the Coulomb term is turned on
   Number of auxiliary basis functions  .... 493
   RIJ-COSX (HFX calculated with COS-X)).... on


General Settings:
 Integral files         IntName         .... PbMACl3_mp2_2.orca
 Hartree-Fock type      HFTyp           .... RHF
 Total Charge           Charge          ....    0
 Multiplicity           Mult            ....    1
 Number of Electrons    NEL             ....   92
 Basis Dimension        Dim             ....  259
 Nuclear Repulsion      ENuc            ....    584.1507756910 Eh

Convergence Acceleration:
 DIIS                   CNVDIIS         .... on
   Start iteration      DIISMaxIt       ....     0
   Startup error        DIISStart       ....  0.200000
   # of expansion vecs  DIISMaxEq       ....     5
   Bias factor          DIISBfac        ....   1.050
   Max. coefficient     DIISMaxC        ....  10.000
 Newton-Raphson         CNVNR           .... off
 SOSCF                  CNVSOSCF        .... on
   Start iteration      SOSCFMaxIt      ....   150
   Startup grad/error   SOSCFStart      ....  0.001000
 Level Shifting         CNVShift        .... on
   Level shift para.    LevelShift      ....    0.2500
   Turn off err/grad.   ShiftErr        ....    0.0000
 Zerner damping         CNVZerner       .... off
 Static damping         CNVDamp         .... on
   Fraction old density DampFac         ....    0.8500
   Max. Damping (<1)    DampMax         ....    0.9800
   Min. Damping (>=0)   DampMin         ....    0.0000
   Turn off err/grad.   DampErr         ....    0.0300
 Fernandez-Rico         CNVRico         .... off

SCF Procedure:
 Maximum # iterations   MaxIter         ....   125
 SCF integral mode      SCFMode         .... Direct
   Integral package                     .... LIBINT
 Reset frequeny         DirectResetFreq ....    20
 Integral Threshold     Thresh          ....  2.500e-11 Eh
 Primitive CutOff       TCut            ....  2.500e-12 Eh

Convergence Tolerance:
 Convergence Check Mode ConvCheckMode   .... Total+1el-Energy
 Energy Change          TolE            ....  1.000e-08 Eh
 1-El. energy change                    ....  1.000e-05 Eh
 Orbital Gradient       TolG            ....  1.000e-05
 Orbital Rotation angle TolX            ....  1.000e-05
 DIIS Error             TolErr          ....  5.000e-07


Diagonalization of the overlap matrix:
Smallest eigenvalue                        ... 1.108e-03
Time for diagonalization                   ...    0.024 sec
Threshold for overlap eigenvalues          ... 1.000e-08
Number of eigenvalues below threshold      ... 0
Time for construction of square roots      ...    0.009 sec
Total time needed                          ...    0.034 sec

---------------------
INITIAL GUESS: MOREAD
---------------------
Guess MOs are being read from file: previous.gbw
Input Geometry matches current geometry (good)
Input basis set matches current basis set (good)
MOs were renormalized
MOs were reorthogonalized (Schmidt)
                      ------------------
                      INITIAL GUESS DONE (   0.2 sec)
                      ------------------
-------------------
DFT GRID GENERATION
-------------------

General Integration Accuracy     IntAcc      ...  5.010
Radial Grid Type                 RadialGrid  ... Gauss-Chebyshev
Angular Grid (max. acc.)         AngularGrid ... Lebedev-434
Angular grid pruning method      GridPruning ... 3 (G Style)
Weight generation scheme         WeightScheme... Becke
Basis function cutoff            BFCut       ...    1.0000e-11
Integration weight cutoff        WCut        ...    1.0000e-14
Grids for H and He will be reduced by one unit

# of grid points (after initial pruning)     ... 115882 (   0.1 sec)
# of grid points (after weights+screening)   ... 108979 (   0.4 sec)
nearest neighbour list constructed           ...    0.0 sec
Grid point re-assignment to atoms done       ...    0.1 sec
Grid point division into batches done        ...    1.1 sec
Reduced shell lists constructed in    3.6 sec

Total number of grid points                  ...   108979
Total number of batches                      ...     1709
Average number of points per batch           ...       63
Average number of grid points per atom       ...     9082
Average number of shells per batch           ...    53.65 (53.12%)
Average number of basis functions per batch  ...   140.88 (54.39%)
Average number of large shells per batch     ...    40.32 (75.15%)
Average number of large basis fcns per batch ...   103.17 (73.23%)
Maximum spatial batch extension              ...  29.78, 33.20, 32.66 au
Average spatial batch extension              ...   2.38,  2.41,  2.45 au

Time for grid setup =    4.065 sec

--------------------
COSX GRID GENERATION
--------------------

General Integration Accuracy     IntAcc      ...  3.340
Radial Grid Type                 RadialGrid  ... Gauss-Chebyshev
Angular Grid (max. acc.)         AngularGrid ... Lebedev-50
Angular grid pruning method      GridPruning ... 3 (G Style)
Weight generation scheme         WeightScheme... Becke
Basis function cutoff            BFCut       ...    1.0000e-11
Integration weight cutoff        WCut        ...    1.0000e-14
Grids for H and He will be reduced by one unit

# of grid points (after initial pruning)     ...   6578 (   0.0 sec)
# of grid points (after weights+screening)   ...   6189 (   0.0 sec)
nearest neighbour list constructed           ...    0.0 sec
Grid point re-assignment to atoms done       ...    0.0 sec
Grid point division into batches done        ...    0.0 sec
Reduced shell lists constructed in    0.2 sec

Total number of grid points                  ...     6189
Total number of batches                      ...      103
Average number of points per batch           ...       60
Average number of grid points per atom       ...      516
Average number of shells per batch           ...    65.46 (64.81%)
Average number of basis functions per batch  ...   174.87 (67.52%)
Average number of large shells per batch     ...    50.51 (77.16%)
Average number of large basis fcns per batch ...   131.72 (75.33%)
Maximum spatial batch extension              ...  28.81, 26.73, 30.79 au
Average spatial batch extension              ...   5.94,  6.43,  6.37 au

Overlap Fitting                  UseSFitting ... on
Constructing numerical overlap ... done (      0.1 sec)
Inverting numerical overlap    ... done (      0.0 sec)
Obtaining analytic overlap     ... done (      0.0 sec)
Final contraction and storage  ... done (      0.0 sec)


General Integration Accuracy     IntAcc      ...  3.670
Radial Grid Type                 RadialGrid  ... Gauss-Chebyshev
Angular Grid (max. acc.)         AngularGrid ... Lebedev-50
Angular grid pruning method      GridPruning ... 3 (G Style)
Weight generation scheme         WeightScheme... Becke
Basis function cutoff            BFCut       ...    1.0000e-11
Integration weight cutoff        WCut        ...    1.0000e-14
Grids for H and He will be reduced by one unit

# of grid points (after initial pruning)     ...   8124 (   0.0 sec)
# of grid points (after weights+screening)   ...   7628 (   0.0 sec)
nearest neighbour list constructed           ...    0.0 sec
Grid point re-assignment to atoms done       ...    0.0 sec
Grid point division into batches done        ...    0.0 sec
Reduced shell lists constructed in    0.2 sec

Total number of grid points                  ...     7628
Total number of batches                      ...      123
Average number of points per batch           ...       62
Average number of grid points per atom       ...      636
Average number of shells per batch           ...    64.60 (63.97%)
Average number of basis functions per batch  ...   172.28 (66.52%)
Average number of large shells per batch     ...    49.68 (76.89%)
Average number of large basis fcns per batch ...   128.81 (74.76%)
Maximum spatial batch extension              ...  30.29, 27.61, 31.81 au
Average spatial batch extension              ...   5.60,  5.90,  5.85 au

Overlap Fitting                  UseSFitting ... on
Constructing numerical overlap ... done (      0.1 sec)
Inverting numerical overlap    ... done (      0.0 sec)
Obtaining analytic overlap     ... done (      0.0 sec)
Final contraction and storage  ... done (      0.0 sec)


General Integration Accuracy     IntAcc      ...  4.010
Radial Grid Type                 RadialGrid  ... Gauss-Chebyshev
Angular Grid (max. acc.)         AngularGrid ... Lebedev-110
Angular grid pruning method      GridPruning ... 3 (G Style)
Weight generation scheme         WeightScheme... Becke
Basis function cutoff            BFCut       ...    1.0000e-11
Integration weight cutoff        WCut        ...    1.0000e-14
Grids for H and He will be reduced by one unit

# of grid points (after initial pruning)     ...  15170 (   0.0 sec)
# of grid points (after weights+screening)   ...  14391 (   0.0 sec)
nearest neighbour list constructed           ...    0.0 sec
Grid point re-assignment to atoms done       ...    0.0 sec
Grid point division into batches done        ...    0.0 sec
Reduced shell lists constructed in    0.4 sec

Total number of grid points                  ...    14391
Total number of batches                      ...      231
Average number of points per batch           ...       62
Average number of grid points per atom       ...     1199
Average number of shells per batch           ...    61.07 (60.47%)
Average number of basis functions per batch  ...   162.40 (62.70%)
Average number of large shells per batch     ...    46.68 (76.43%)
Average number of large basis fcns per batch ...   121.32 (74.71%)
Maximum spatial batch extension              ...  30.75, 34.29, 29.84 au
Average spatial batch extension              ...   4.75,  5.00,  4.93 au

Overlap Fitting                  UseSFitting ... on
Constructing numerical overlap ... done (      0.2 sec)
Inverting numerical overlap    ... done (      0.0 sec)
Obtaining analytic overlap     ... done (      0.0 sec)
Final contraction and storage  ... done (      0.0 sec)

Time for X-Grid setup             =    1.552 sec
--------------
SCF ITERATIONS
--------------
ITER       Energy         Delta-E        Max-DP      RMS-DP      [F,P]     Damp
               ***  Starting incremental Fock matrix formation  ***
  0  -1668.9866466256   0.000000000000 0.03728631  0.00025064  0.0681486 0.8500
  1  -1668.9894362916  -0.002789665908 0.03396523  0.00024291  0.0580082 0.8500
                               ***Turning on DIIS***
  2  -1668.9919040460  -0.002467754444 0.02909727  0.00021165  0.0493687 0.8500
  3  -1668.9940211899  -0.002117143890 0.02466490  0.00017856  0.0420089 0.8500
  4  -1668.9958390702  -0.001817880319 0.02122252  0.00015266  0.0357155 0.8500
  5  -1668.9973963250  -0.001557254757 0.01850792  0.00013311  0.0303448 0.8500
  6  -1668.9987361710  -0.001339846003 0.10721298  0.00077384  0.0257815 0.0000
                      *** Initiating the SOSCF procedure ***
                           *** Shutting down DIIS ***
                      *** Re-Reading the Fockian *** 
                      *** Removing any level shift *** 
ITER      Energy       Delta-E        Grad      Rot      Max-DP    RMS-DP
  7  -1669.00678971  -0.0080535414  0.000449  0.000449  0.002881  0.000030
               *** Restarting incremental Fock matrix formation ***
  8  -1669.00681018  -0.0000204693  0.000184  0.000631  0.000869  0.000018
  9  -1669.00681271  -0.0000025319  0.000063  0.000391  0.000950  0.000011
 10  -1669.00681302  -0.0000003087  0.000036  0.000058  0.000249  0.000003
 11  -1669.00681309  -0.0000000649  0.000008  0.000017  0.000042  0.000001
 12  -1669.00681312  -0.0000000349  0.000004  0.000011  0.000027  0.000000
                  ***Gradient check signals convergence***
              ***Rediagonalizing the Fockian in SOSCF/NRSCF***

               *****************************************************
               *                     SUCCESS                       *
               *           SCF CONVERGED AFTER  13 CYCLES          *
               *****************************************************

Old exchange energy                            =    -59.194273092 Eh
New exchange energy                            =    -59.196648498 Eh
Exchange energy change after final integration =     -0.002375406 Eh
Total energy after final integration           =  -1669.009188505 Eh
Final COS-X integration done in                =    30.516 sec

----------------
TOTAL SCF ENERGY
----------------

Total Energy       :        -1669.00918851 Eh          -45416.04893 eV

Components:
Nuclear Repulsion  :          584.15077569 Eh           15895.55072 eV
Electronic Energy  :        -2253.15996420 Eh          -61311.59965 eV

One Electron Energy:        -3538.78543195 Eh          -96295.24716 eV
Two Electron Energy:         1285.62546776 Eh           34983.64751 eV

Virial components:
Potential Energy   :        -3206.67550942 Eh          -87258.07673 eV
Kinetic Energy     :         1537.66632092 Eh           41842.02780 eV
Virial Ratio       :            2.08541702


DFT components:
N(Alpha)           :       46.000005400932 electrons
N(Beta)            :       46.000005400932 electrons
N(Total)           :       92.000010801864 electrons
E(X)               :      -52.571261988757 Eh       
E(C)               :       -2.604874313102 Eh       
E(XC)              :      -55.176136301859 Eh       

---------------
SCF CONVERGENCE
---------------

  Last Energy change         ...    2.2447e-08  Tolerance :   1.0000e-08
  Last MAX-Density change    ...    1.7156e-13  Tolerance :   1.0000e-07
  Last RMS-Density change    ...    1.1870e-15  Tolerance :   5.0000e-09
  Last Orbital Gradient      ...    5.4579e-07  Tolerance :   1.0000e-05
  Last Orbital Rotation      ...    1.8585e-06  Tolerance :   1.0000e-05

             **** THE GBW FILE WAS UPDATED (PbMACl3_mp2_2.orca.gbw) ****
             **** DENSITY FILE WAS UPDATED (PbMACl3_mp2_2.orca.scfp.tmp) ****
             **** ENERGY FILE WAS UPDATED (PbMACl3_mp2_2.orca.en.tmp) ****
----------------
ORBITAL ENERGIES
----------------

  NO   OCC          E(Eh)            E(eV) 
   0   2.0000    -102.899086     -2800.0265 
   1   2.0000    -102.843244     -2798.5069 
   2   2.0000    -102.816399     -2797.7764 
   3   2.0000     -14.987449      -407.8292 
   4   2.0000     -10.723796      -291.8093 
   5   2.0000      -9.909971      -269.6640 
   6   2.0000      -9.849734      -268.0249 
   7   2.0000      -9.821571      -267.2585 
   8   2.0000      -7.546932      -205.3625 
   9   2.0000      -7.544972      -205.3091 
  10   2.0000      -7.544629      -205.2998 
  11   2.0000      -7.486802      -203.7262 
  12   2.0000      -7.485365      -203.6871 
  13   2.0000      -7.484778      -203.6712 
  14   2.0000      -7.458685      -202.9611 
  15   2.0000      -7.457198      -202.9207 
  16   2.0000      -7.456838      -202.9109 
  17   2.0000      -5.803473      -157.9205 
  18   2.0000      -3.575301       -97.2889 
  19   2.0000      -3.574063       -97.2552 
  20   2.0000      -3.573277       -97.2338 
  21   2.0000      -1.159718       -31.5575 
  22   2.0000      -1.008369       -27.4391 
  23   2.0000      -0.967534       -26.3279 
  24   2.0000      -0.964994       -26.2588 
  25   2.0000      -0.963768       -26.2255 
  26   2.0000      -0.962654       -26.1951 
  27   2.0000      -0.910413       -24.7736 
  28   2.0000      -0.876734       -23.8571 
  29   2.0000      -0.856235       -23.2993 
  30   2.0000      -0.823404       -22.4060 
  31   2.0000      -0.687251       -18.7011 
  32   2.0000      -0.684069       -18.6145 
  33   2.0000      -0.618007       -16.8168 
  34   2.0000      -0.568886       -15.4802 
  35   2.0000      -0.534780       -14.5521 
  36   2.0000      -0.533938       -14.5292 
  37   2.0000      -0.414823       -11.2879 
  38   2.0000      -0.409390       -11.1401 
  39   2.0000      -0.396700       -10.7948 
  40   2.0000      -0.346292        -9.4231 
  41   2.0000      -0.342045        -9.3075 
  42   2.0000      -0.333776        -9.0825 
  43   2.0000      -0.311753        -8.4832 
  44   2.0000      -0.302449        -8.2301 
  45   2.0000      -0.287982        -7.8364 
  46   0.0000      -0.015517        -0.4222 
  47   0.0000       0.003751         0.1021 
  48   0.0000       0.023928         0.6511 
  49   0.0000       0.047624         1.2959 
  50   0.0000       0.072849         1.9823 
  51   0.0000       0.096751         2.6327 
  52   0.0000       0.104891         2.8542 
  53   0.0000       0.111485         3.0337 
  54   0.0000       0.122492         3.3332 
  55   0.0000       0.126809         3.4506 
  56   0.0000       0.140909         3.8343 
  57   0.0000       0.160736         4.3738 
  58   0.0000       0.165384         4.5003 
  59   0.0000       0.219361         5.9691 
  60   0.0000       0.226920         6.1748 
  61   0.0000       0.238029         6.4771 
  62   0.0000       0.238774         6.4974 
  63   0.0000       0.255180         6.9438 
  64   0.0000       0.268144         7.2966 
  65   0.0000       0.273984         7.4555 
  66   0.0000       0.292397         7.9565 
  67   0.0000       0.307339         8.3631 
  68   0.0000       0.328679         8.9438 
  69   0.0000       0.353033         9.6065 
  70   0.0000       0.378025        10.2866 
  71   0.0000       0.393842        10.7170 
  72   0.0000       0.403845        10.9892 
  73   0.0000       0.414357        11.2752 
  74   0.0000       0.422347        11.4926 
  75   0.0000       0.434939        11.8353 
  76   0.0000       0.454357        12.3637 
  77   0.0000       0.460114        12.5203 
  78   0.0000       0.470461        12.8019 
  79   0.0000       0.477899        13.0043 
  80   0.0000       0.498959        13.5774 
  81   0.0000       0.501587        13.6489 
  82   0.0000       0.505149        13.7458 
  83   0.0000       0.508351        13.8329 
  84   0.0000       0.512539        13.9469 
  85   0.0000       0.521362        14.1870 
  86   0.0000       0.537631        14.6297 
  87   0.0000       0.543740        14.7959 
  88   0.0000       0.557440        15.1687 
  89   0.0000       0.566929        15.4269 
  90   0.0000       0.572675        15.5833 
  91   0.0000       0.579995        15.7825 
  92   0.0000       0.598147        16.2764 
  93   0.0000       0.605002        16.4630 
  94   0.0000       0.612442        16.6654 
  95   0.0000       0.626636        17.0516 
  96   0.0000       0.645356        17.5610 
  97   0.0000       0.648744        17.6532 
  98   0.0000       0.671886        18.2830 
  99   0.0000       0.678714        18.4687 
 100   0.0000       0.702698        19.1214 
 101   0.0000       0.708048        19.2670 
 102   0.0000       0.722549        19.6616 
 103   0.0000       0.748992        20.3811 
 104   0.0000       0.758877        20.6501 
 105   0.0000       0.804502        21.8916 
 106   0.0000       0.823154        22.3992 
 107   0.0000       0.830544        22.6003 
 108   0.0000       0.853670        23.2295 
 109   0.0000       0.871310        23.7095 
 110   0.0000       0.890457        24.2306 
 111   0.0000       0.895068        24.3560 
 112   0.0000       0.905210        24.6320 
 113   0.0000       0.938059        25.5259 
 114   0.0000       0.951381        25.8884 
 115   0.0000       0.957278        26.0489 
 116   0.0000       1.007367        27.4118 
 117   0.0000       1.050681        28.5905 
 118   0.0000       1.066515        29.0214 
 119   0.0000       1.080936        29.4138 
 120   0.0000       1.090212        29.6662 
 121   0.0000       1.117380        30.4054 
 122   0.0000       1.131918        30.8010 
 123   0.0000       1.188660        32.3451 
 124   0.0000       1.194496        32.5039 
 125   0.0000       1.217070        33.1182 
 126   0.0000       1.275897        34.7189 
 127   0.0000       1.322202        35.9789 
 128   0.0000       1.343426        36.5565 
 129   0.0000       1.397860        38.0377 
 130   0.0000       1.485651        40.4266 
 131   0.0000       1.552468        42.2448 
 132   0.0000       1.569059        42.6963 
 133   0.0000       1.578105        42.9424 
 134   0.0000       1.586991        43.1842 
 135   0.0000       1.605244        43.6809 
 136   0.0000       1.714051        46.6417 
 137   0.0000       1.761262        47.9264 
 138   0.0000       1.790559        48.7236 
 139   0.0000       1.861004        50.6405 
 140   0.0000       1.879191        51.1354 
 141   0.0000       1.880432        51.1692 
 142   0.0000       1.898325        51.6561 
 143   0.0000       1.934160        52.6312 
 144   0.0000       1.943207        52.8774 
 145   0.0000       1.948636        53.0251 
 146   0.0000       1.955224        53.2044 
 147   0.0000       1.969298        53.5873 
 148   0.0000       1.974580        53.7311 
 149   0.0000       1.978398        53.8349 
 150   0.0000       1.993234        54.2387 
 151   0.0000       2.005631        54.5760 
 152   0.0000       2.014644        54.8213 
 153   0.0000       2.017091        54.8878 
 154   0.0000       2.053129        55.8685 
 155   0.0000       2.072537        56.3966 
 156   0.0000       2.076231        56.4971 
 157   0.0000       2.102582        57.2142 
 158   0.0000       2.113727        57.5174 
 159   0.0000       2.129341        57.9423 
 160   0.0000       2.142880        58.3107 
 161   0.0000       2.158179        58.7270 
 162   0.0000       2.168391        59.0049 
 163   0.0000       2.180853        59.3440 
 164   0.0000       2.190097        59.5956 
 165   0.0000       2.192931        59.6727 
 166   0.0000       2.195547        59.7439 
 167   0.0000       2.215374        60.2834 
 168   0.0000       2.236383        60.8551 
 169   0.0000       2.243655        61.0530 
 170   0.0000       2.251637        61.2701 
 171   0.0000       2.262475        61.5651 
 172   0.0000       2.269685        61.7613 
 173   0.0000       2.276753        61.9536 
 174   0.0000       2.282501        62.1100 
 175   0.0000       2.290813        62.3362 
 176   0.0000       2.294402        62.4338 
 177   0.0000       2.297670        62.5228 
 178   0.0000       2.299860        62.5824 
 179   0.0000       2.310461        62.8708 
 180   0.0000       2.325666        63.2846 
 181   0.0000       2.337810        63.6150 
 182   0.0000       2.355692        64.1016 
 183   0.0000       2.357203        64.1427 
 184   0.0000       2.364926        64.3529 
 185   0.0000       2.371529        64.5326 
 186   0.0000       2.379546        64.7507 
 187   0.0000       2.407784        65.5191 
 188   0.0000       2.416655        65.7605 
 189   0.0000       2.434936        66.2580 
 190   0.0000       2.437552        66.3292 
 191   0.0000       2.462577        67.0101 
 192   0.0000       2.477395        67.4133 
 193   0.0000       2.487094        67.6773 
 194   0.0000       2.489127        67.7326 
 195   0.0000       2.497981        67.9735 
 196   0.0000       2.512234        68.3614 
 197   0.0000       2.547745        69.3277 
 198   0.0000       2.558367        69.6167 
 199   0.0000       2.570639        69.9507 
 200   0.0000       2.587037        70.3969 
 201   0.0000       2.605129        70.8892 
 202   0.0000       2.638166        71.7881 
 203   0.0000       2.660310        72.3907 
 204   0.0000       2.664400        72.5020 
 205   0.0000       2.750819        74.8536 
 206   0.0000       2.758246        75.0557 
 207   0.0000       2.787469        75.8509 
 208   0.0000       2.793488        76.0147 
 209   0.0000       2.837611        77.2153 
 210   0.0000       2.894147        78.7537 
 211   0.0000       3.002465        81.7012 
 212   0.0000       3.112278        84.6894 
 213   0.0000       3.115460        84.7760 
 214   0.0000       3.195222        86.9464 
 215   0.0000       3.218565        87.5816 
 216   0.0000       3.281219        89.2865 
 217   0.0000       3.381887        92.0258 
 218   0.0000       3.421310        93.0986 
 219   0.0000       3.538165        96.2784 
 220   0.0000       3.562524        96.9412 
 221   0.0000       3.569311        97.1259 
 222   0.0000       3.757059       102.2348 
 223   0.0000       3.763653       102.4142 
 224   0.0000       3.907606       106.3314 
 225   0.0000       4.170473       113.4843 
 226   0.0000       4.181134       113.7744 
 227   0.0000       4.382250       119.2471 
 228   0.0000       4.433389       120.6386 
 229   0.0000       4.823166       131.2450 
 230   0.0000       4.824310       131.2762 
 231   0.0000       4.926163       134.0477 
 232   0.0000       4.936927       134.3406 
 233   0.0000       5.061146       137.7208 
 234   0.0000       5.084635       138.3600 
 235   0.0000       5.093963       138.6138 
 236   0.0000       5.281986       143.7301 
 237   0.0000       5.484796       149.2489 
 238   0.0000       5.504428       149.7831 
 239   0.0000       5.829319       158.6238 
 240   0.0000      11.018984       299.8418 
 241   0.0000      11.056822       300.8714 
 242   0.0000      11.079952       301.5008 
 243   0.0000      11.093781       301.8771 
 244   0.0000      11.118699       302.5552 
 245   0.0000      11.123002       302.6723 
 246   0.0000      11.141793       303.1836 
 247   0.0000      11.165137       303.8188 
 248   0.0000      11.260993       306.4272 
 249   0.0000      22.641745       616.1132 
 250   0.0000      24.966702       679.3785 
 251   0.0000      25.234165       686.6565 
 252   0.0000      25.439370       692.2405 
 253   0.0000      32.331692       879.7901 
 254   0.0000      35.536396       966.9945 
 255   0.0000      35.749947       972.8055 
 256   0.0000      35.838718       975.2211 
 257   0.0000      36.027521       980.3587 
 258   0.0000     123.622613      3363.9423 

                    ********************************
                    * MULLIKEN POPULATION ANALYSIS *
                    ********************************

-----------------------
MULLIKEN ATOMIC CHARGES
-----------------------
   0 C :   -0.253242
   1 N :   -0.316239
   2 H :    0.160687
   3 H :    0.171087
   4 H :    0.161580
   5 H :    0.292007
   6 H :    0.291380
   7 H :    0.292434
   8 Pb:    0.840567
   9 Cl:   -0.472495
  10 Cl:   -0.564938
  11 Cl:   -0.602828
Sum of atomic charges:   -0.0000000

--------------------------------
MULLIKEN REDUCED ORBITAL CHARGES
--------------------------------
  0 C s       :     3.278346  s :     3.278346
      pz      :     0.974197  p :     2.901109
      px      :     0.994111
      py      :     0.932801
      dz2     :     0.006297  d :     0.067782
      dxz     :     0.018250
      dyz     :     0.018020
      dx2y2   :     0.007324
      dxy     :     0.017889
      f0      :     0.000349  f :     0.006005
      f+1     :     0.000487
      f-1     :     0.000701
      f+2     :     0.000733
      f-2     :     0.002645
      f+3     :     0.000508
      f-3     :     0.000582
  1 N s       :     3.426339  s :     3.426339
      pz      :     1.284768  p :     3.839828
      px      :     1.279068
      py      :     1.275991
      dz2     :     0.005212  d :     0.047874
      dxz     :     0.012920
      dyz     :     0.011597
      dx2y2   :     0.005651
      dxy     :     0.012495
      f0      :     0.000125  f :     0.002198
      f+1     :     0.000164
      f-1     :     0.000201
      f+2     :     0.000213
      f-2     :     0.001157
      f+3     :     0.000162
      f-3     :     0.000177
  2 H s       :     0.817535  s :     0.817535
      pz      :     0.008411  p :     0.021778
      px      :     0.007783
      py      :     0.005584
  3 H s       :     0.806993  s :     0.806993
      pz      :     0.006999  p :     0.021920
      px      :     0.007390
      py      :     0.007531
  4 H s       :     0.816644  s :     0.816644
      pz      :     0.006692  p :     0.021776
      px      :     0.007418
      py      :     0.007666
  5 H s       :     0.673612  s :     0.673612
      pz      :     0.009162  p :     0.034381
      px      :     0.012739
      py      :     0.012481
  6 H s       :     0.668652  s :     0.668652
      pz      :     0.013883  p :     0.039967
      px      :     0.010134
      py      :     0.015951
  7 H s       :     0.667319  s :     0.667319
      pz      :     0.016476  p :     0.040248
      px      :     0.016096
      py      :     0.007675
  8 Pbs       :     3.920873  s :     3.920873
      pz      :     2.323107  p :     7.041544
      px      :     2.353292
      py      :     2.365145
      dz2     :     2.027092  d :    10.135587
      dxz     :     2.031956
      dyz     :     2.022048
      dx2y2   :     2.026538
      dxy     :     2.027953
      f0      :     0.009264  f :     0.061430
      f+1     :     0.009113
      f-1     :     0.005242
      f+2     :     0.008943
      f-2     :     0.001450
      f+3     :     0.012147
      f-3     :     0.015271
  9 Cls       :     5.945150  s :     5.945150
      pz      :     3.895278  p :    11.493690
      px      :     3.697808
      py      :     3.900605
      dz2     :     0.004426  d :     0.031589
      dxz     :     0.006368
      dyz     :     0.001641
      dx2y2   :     0.012676
      dxy     :     0.006477
      f0      :     0.000187  f :     0.002066
      f+1     :     0.000407
      f-1     :     0.000051
      f+2     :     0.000312
      f-2     :     0.000030
      f+3     :     0.000658
      f-3     :     0.000421
 10 Cls       :     5.959507  s :     5.959507
      pz      :     3.931580  p :    11.591008
      px      :     3.912912
      py      :     3.746516
      dz2     :     0.002201  d :     0.013906
      dxz     :     0.001978
      dyz     :     0.001609
      dx2y2   :     0.005356
      dxy     :     0.002762
      f0      :     0.000050  f :     0.000518
      f+1     :     0.000037
      f-1     :     0.000106
      f+2     :     0.000059
      f-2     :     0.000028
      f+3     :     0.000110
      f-3     :     0.000128
 11 Cls       :     5.966959  s :     5.966959
      pz      :     3.803012  p :    11.626598
      px      :     3.879365
      py      :     3.944221
      dz2     :     0.003485  d :     0.008956
      dxz     :     0.003063
      dyz     :     0.000937
      dx2y2   :     0.000681
      dxy     :     0.000790
      f0      :     0.000082  f :     0.000316
      f+1     :     0.000126
      f-1     :     0.000030
      f+2     :     0.000038
      f-2     :     0.000023
      f+3     :     0.000005
      f-3     :     0.000011


                     *******************************
                     * LOEWDIN POPULATION ANALYSIS *
                     *******************************

----------------------
LOEWDIN ATOMIC CHARGES
----------------------
   0 C :   -0.267837
   1 N :    0.096399
   2 H :    0.126219
   3 H :    0.130102
   4 H :    0.126703
   5 H :    0.197373
   6 H :    0.169523
   7 H :    0.171428
   8 Pb:   -0.013076
   9 Cl:   -0.008525
  10 Cl:   -0.303865
  11 Cl:   -0.424444

-------------------------------
LOEWDIN REDUCED ORBITAL CHARGES
-------------------------------
  0 C s       :     2.854305  s :     2.854305
      pz      :     1.031699  p :     3.078712
      px      :     1.042481
      py      :     1.004532
      dz2     :     0.027597  d :     0.298043
      dxz     :     0.078432
      dyz     :     0.081065
      dx2y2   :     0.031214
      dxy     :     0.079735
      f0      :     0.005266  f :     0.036777
      f+1     :     0.003883
      f-1     :     0.005653
      f+2     :     0.004289
      f-2     :     0.007053
      f+3     :     0.004922
      f-3     :     0.005709
  1 N s       :     2.998659  s :     2.998659
      pz      :     1.247686  p :     3.738852
      px      :     1.247896
      py      :     1.243270
      dz2     :     0.016994  d :     0.156819
      dxz     :     0.041053
      dyz     :     0.039861
      dx2y2   :     0.018655
      dxy     :     0.040255
      f0      :     0.001447  f :     0.009272
      f+1     :     0.001108
      f-1     :     0.001408
      f+2     :     0.001018
      f-2     :     0.001543
      f+3     :     0.001237
      f-3     :     0.001511
  2 H s       :     0.811374  s :     0.811374
      pz      :     0.023098  p :     0.062406
      px      :     0.021736
      py      :     0.017572
  3 H s       :     0.807187  s :     0.807187
      pz      :     0.019576  p :     0.062711
      px      :     0.022447
      py      :     0.020687
  4 H s       :     0.810881  s :     0.810881
      pz      :     0.020658  p :     0.062415
      px      :     0.020804
      py      :     0.020953
  5 H s       :     0.698957  s :     0.698957
      pz      :     0.030693  p :     0.103670
      px      :     0.036693
      py      :     0.036284
  6 H s       :     0.712220  s :     0.712220
      pz      :     0.039795  p :     0.118257
      px      :     0.033201
      py      :     0.045261
  7 H s       :     0.707554  s :     0.707554
      pz      :     0.048123  p :     0.121018
      px      :     0.046987
      py      :     0.025908
  8 Pbs       :     3.723110  s :     3.723110
      pz      :     2.423976  p :     7.512607
      px      :     2.591402
      py      :     2.497228
      dz2     :     2.124707  d :    10.588775
      dxz     :     2.122892
      dyz     :     2.057157
      dx2y2   :     2.174263
      dxy     :     2.109757
      f0      :     0.024342  f :     0.188583
      f+1     :     0.033027
      f-1     :     0.013491
      f+2     :     0.023990
      f-2     :     0.003518
      f+3     :     0.047369
      f-3     :     0.042847
  9 Cls       :     5.646542  s :     5.646542
      pz      :     3.800544  p :    11.288954
      px      :     3.683719
      py      :     3.804690
      dz2     :     0.012293  d :     0.067381
      dxz     :     0.006969
      dyz     :     0.002785
      dx2y2   :     0.036158
      dxy     :     0.009175
      f0      :     0.000277  f :     0.005648
      f+1     :     0.001500
      f-1     :     0.000100
      f+2     :     0.000522
      f-2     :     0.000033
      f+3     :     0.002387
      f-3     :     0.000829
 10 Cls       :     5.797688  s :     5.797688
      pz      :     3.890303  p :    11.482984
      px      :     3.872870
      py      :     3.719811
      dz2     :     0.003973  d :     0.022188
      dxz     :     0.002506
      dyz     :     0.001748
      dx2y2   :     0.010699
      dxy     :     0.003263
      f0      :     0.000052  f :     0.001005
      f+1     :     0.000060
      f-1     :     0.000241
      f+2     :     0.000106
      f-2     :     0.000037
      f+3     :     0.000188
      f-3     :     0.000322
 11 Cls       :     5.851201  s :     5.851201
      pz      :     3.773101  p :    11.559336
      px      :     3.860392
      py      :     3.925843
      dz2     :     0.006879  d :     0.013387
      dxz     :     0.003998
      dyz     :     0.001025
      dx2y2   :     0.000623
      dxy     :     0.000861
      f0      :     0.000175  f :     0.000520
      f+1     :     0.000223
      f-1     :     0.000040
      f+2     :     0.000039
      f-2     :     0.000023
      f+3     :     0.000006
      f-3     :     0.000015


                      *****************************
                      * MAYER POPULATION ANALYSIS *
                      *****************************

  NA   - Mulliken gross atomic population
  ZA   - Total nuclear charge
  QA   - Mulliken gross atomic charge
  VA   - Mayer's total valence
  BVA  - Mayer's bonded valence
  FA   - Mayer's free valence

  ATOM       NA         ZA         QA         VA         BVA        FA
  0 C      6.2532     6.0000    -0.2532     3.8197     3.8197     0.0000
  1 N      7.3162     7.0000    -0.3162     3.3571     3.3571     0.0000
  2 H      0.8393     1.0000     0.1607     0.9609     0.9609     0.0000
  3 H      0.8289     1.0000     0.1711     0.9601     0.9601    -0.0000
  4 H      0.8384     1.0000     0.1616     0.9604     0.9604    -0.0000
  5 H      0.7080     1.0000     0.2920     0.9775     0.9775    -0.0000
  6 H      0.7086     1.0000     0.2914     0.9516     0.9516    -0.0000
  7 H      0.7076     1.0000     0.2924     0.9830     0.9830     0.0000
  8 Pb    21.1594    22.0000     0.8406     1.9416     1.9416     0.0000
  9 Cl    17.4725    17.0000    -0.4725     0.8964     0.8964     0.0000
 10 Cl    17.5649    17.0000    -0.5649     0.7532     0.7532     0.0000
 11 Cl    17.6028    17.0000    -0.6028     0.6944     0.6944     0.0000

  Mayer bond orders larger than 0.1
B(  0-C ,  1-N ) :   0.8998 B(  0-C ,  2-H ) :   0.9688 B(  0-C ,  3-H ) :   0.9664 
B(  0-C ,  4-H ) :   0.9678 B(  1-N ,  5-H ) :   0.8417 B(  1-N ,  6-H ) :   0.8421 
B(  1-N ,  7-H ) :   0.8157 B(  5-H , 11-Cl) :   0.1356 B(  6-H ,  9-Cl) :   0.1073 
B(  7-H , 10-Cl) :   0.1664 B(  8-Pb,  9-Cl) :   0.7736 B(  8-Pb, 10-Cl) :   0.5848 
B(  8-Pb, 11-Cl) :   0.5701 

-------
TIMINGS
-------

Total SCF time: 0 days 0 hours 4 min 39 sec 

Total time                  ....     279.460 sec
Sum of individual times     ....     247.429 sec  ( 88.5%)

Fock matrix formation       ....     240.898 sec  ( 86.2%)
  Coulomb formation         ....     194.912 sec  ( 80.9% of F)
  Split-RI-J                ....      17.287 sec  (  7.2% of F)
  Chain of spheres X        ....     208.070 sec  ( 86.4% of F)
  COS-X 1 center corr.      ....       0.000 sec  (  0.0% of F)
  XC integration            ....      46.072 sec  ( 19.1% of F)
    Basis function eval.    ....      16.950 sec  ( 36.8% of XC)
    Density eval.           ....      12.062 sec  ( 26.2% of XC)
    XC-Functional eval.     ....       3.142 sec  (  6.8% of XC)
    XC-Potential eval.      ....      12.276 sec  ( 26.6% of XC)
Diagonalization             ....       0.355 sec  (  0.1%)
Density matrix formation    ....       0.041 sec  (  0.0%)
Population analysis         ....       0.077 sec  (  0.0%)
Initial guess               ....       0.150 sec  (  0.1%)
Orbital Transformation      ....       0.000 sec  (  0.0%)
Orbital Orthonormalization  ....       0.146 sec  (  0.1%)
DIIS solution               ....       0.127 sec  (  0.0%)
SOSCF solution              ....       0.164 sec  (  0.1%)
Grid generation             ....       5.617 sec  (  2.0%)

------------------------------------------------------------------------------
                              ORCA MP2 CALCULATION
------------------------------------------------------------------------------


----------------------
RI-MP2 ENERGY+GRADIENT
----------------------
Dimension of the basis                    ...  259
Memory devoted to MP2                     ... 1000 MB   
Data format for buffers                   ... DOUBLE
Compression type for matrix containers    ... UNCOMPRESSED
Overall scaling of the MP2 energy         ...   2.700e-01 Eh
Calculating two index integrals           ... done (    0.021 sec)
Cholesky decomposition of the V-matrix    ... done
Cholesky decomposition of V**-1           ... done (    0.039 sec)

-----------------
RI-TRANSFORMATION (AUX index driven)
-----------------

Dimension of the orbital-basis         ... 259
Dimension of the aux-basis             ... 493
Transformation of internal MOs         ...    0-  45
Transformation of internal/external MOs...    0-  45 to   46- 258
Number Format for Storage              ... Double (8 Byte)
Integral mode                          ... Direct

First Phase: integral generation and transformation of MO indices
  Aux angular momentum 0               ... done (    0.711 sec)
  Aux angular momentum 1               ... done (    0.569 sec)
  Aux angular momentum 2               ... done (    0.686 sec)
  Aux angular momentum 3               ... done (    0.394 sec)
  Aux angular momentum 4               ... done (    0.360 sec)
Closing buffer VIJ ( 0.00 GB; CompressionRatio= 1.95)
Closing buffer VIA ( 0.04 GB; CompressionRatio= 1.00)
  Phase 1 completed in     2.871 sec
Second Phase: sorting and transformation of aux index

IJ-Transformation
Memory available                       ... 990 MB 
Max. # MO pairs treated in a batch     ... 46    
# of internal orbitals                 ... 46
# batches for internal orbitals        ... 1
Closing buffer IJV ( 0.00 GB; CompressionRatio= 1.00)
(ij|v) transformation done in     0.190 sec

IA-Transformation
Memory available                       ... 990 MB 
Max. # MO pairs treated in a batch     ... 46    
# of internal orbitals                 ... 46
# batches for internal orbitals        ... 1
Closing buffer IAV ( 0.04 GB; CompressionRatio= 1.00)
(ia|v) transformation done in     0.709 sec

  Phase 2 completed in     0.938 sec
RI-Integral transformation completed in     3.810 sec
Opening buffers                              ... done

Starting loop over batches of integrals:

Operator 0  - window                       ... (  0- 45)x( 46-258)
Operator 0  - Memory available             ...  1000 MB
Operator 0  - Memory needed per MO         ...   1.6 MB
Operator 0  - Number of orbitals per batch ... 46
Operator 0  - Number of batches            ... 1

OPERATOR  0   PASS   0:  MOs     0 ...   45
  Reading integrals       ... ok
  Internal MO   2
  Internal MO   5
  Internal MO   8
  Internal MO  11
  Internal MO  14
  Internal MO  17
  Internal MO  20
  Internal MO  23
  Internal MO  26
  Internal MO  29
  Internal MO  32
  Internal MO  35
  Internal MO  38
  Internal MO  41
  Internal MO  44
Closing buffer GIPV ( 0.04 GB; CompressionRatio= 1.00)
Time spent in pair loops =    74.803 sec

-----------------------------------------------
 RI-MP2 CORRELATION ENERGY:     -0.576707573 Eh
-----------------------------------------------


---------------------
MP2 DENSITY FORMATION
---------------------

Completing the external part of the density      ... done
Storing the unrelaxed density                    ... done

Calculating the xc-kernel                        ... done
Calculating G(D)                                 ... done
Completing the Lagrangian                        ... done
Solving the Z-vector equations                   ... 

------------------------------------------------------------------------------
                           ORCA CP-SCF CALCULATION
------------------------------------------------------------------------------

Input orbitals are from        ... PbMACl3_mp2_2.orca.gbw
Input Perturbation             ... PbMACl3_mp2_2.orca.pin.tmp
Wavefunction output            ... PbMACl3_mp2_2.orca.pout.tmp
Perturbation mode              ... Real perturbation
Solver                         ... DIIS
   MaxDIIS                     ... 20
   Levelshift                  ...    3.000e-01 Eh
Max. number of iterations      ... 128
Convergence tolerance          ... 1.000e-08
Integral handling              ... Direct
COSX GridX                     ... 1
Number of perturbations        ... 1
Number of operators            ... 1
Orbital ranges used for CP-SCF:
 Operator 0:  Orbitals   0... 45  to  46...258
DFT calculation                         ... on
Exchange functional (SCF)               ... B88
Exchange functional (CP-SCF)            ... B88
   X-Alpha parameter    XAlpha (SCF)    ...  0.666667
   X-Alpha parameter    XAlpha (CP-SCF) ...  0.666667
   Becke's b parameter  XBeta (SCF)     ...  0.004200
   Becke's b parameter  XBeta (CP-SCF)  ...  0.004200
Correlation functional (SCF)            ... LYP
Correlation functional (CP-SCF)         ... LYP
 LDA part of GGA corr.  LDAOpt (SCF)    ... VWN-3
 LDA part of GGA corr.  LDAOpt (CP-SCF) ... VWN-3
Hybrid DFT                              ... on
   Exchange mixing (SCF)                ...  0.530
   Exchange mixing (CP-SCF)             ...  0.530
   GGA exch. scaling(SCF)               ...  0.470
   GGA exch. scaling (CP-SCF)           ...  0.470
   GGA corr. scaling (SCF)              ...  0.730
   GGA corr. scaling (CP-SCF)           ...  0.730
The RIJCOSX approximation is active
Variables per vector in CP-SCF ... 9798
Number of vectors sought       ... 1
Calculating the xc-kernel      ... done

Solving the CP-SCF equations by a DIIS algorithm

-----------------
CP-SCF ITERATIONS
-----------------
  Iteration   0: MaxR=  0.084574640
  Iteration   1: MaxR=  0.038053811
  Iteration   2: MaxR=  0.010874710
  Iteration   3: MaxR=  0.004373096
  Iteration   4: MaxR=  0.001946660
  Iteration   5: MaxR=  0.000722007
  Iteration   6: MaxR=  0.000312636
  Iteration   7: MaxR=  0.000106921
  Iteration   8: MaxR=  0.000045198
  Iteration   9: MaxR=  0.000015542
  Iteration  10: MaxR=  0.000006714
  Iteration  11: MaxR=  0.000002619
  Iteration  12: MaxR=  0.000001105
  Iteration  13: MaxR=  0.000000407
  Iteration  14: MaxR=  0.000000151
  Iteration  15: MaxR=  0.000000058
  Iteration  16: MaxR=  0.000000020
  Iteration  17: MaxR=  0.000000008
                              *** THE CP-SCF HAS CONVERGED *** 
done
Finalizing the relaxed density                   ... done
Transforming P to the AO basis                   ... done
Storing the relaxed density                      ... done

------------------------------------
ENERGY WEIGHTED DENSITY FINALIZATION
------------------------------------

Gathering the parts of the W-matrix              ... done
Forming the Z-density                            ... done
Transforming Z to the AO basis                   ... done
Calculating G(Z)                                 ... done
Finalizing the W-matrix                          ... done
Transforming W to the AO basis and storing       ... done
Entering the RIJONX and RIJCOSX sections
Starting the three-index derivative integrals:
Operator 0  - Memory available             ...  1000 MB
Operator 0  - Memory needed per MO         ...   1.0 MB
Operator 0  - Number of orbitals per batch ... 46
Operator 0  - Number of batches            ... 1

OPERATOR  0   PASS   0:  MOs     0 ...   45

----------------------------------
MP2 DERIVATIVE INTEGRAL GENERATION
----------------------------------


Input Correlated Electron Density   ... PbMACl3_mp2_2.orca.pmp2re
Input Energy Weighted Density       ... PbMACl3_mp2_2.orca.wmp2.tmp
Input SCF Electron Density          ... PbMACl3_mp2_2.orca.scfp.tmp

One-Electron Terms    ...
  ECP gradient                                           ... One-Electron Terms done

-----------------------------------------------------------
MP2 COSX Grid Generation
-----------------------------------------------------------

General Integration Accuracy     IntAcc      ...  4.340
Radial Grid Type                 RadialGrid  ... Gauss-Chebyshev
Angular Grid (max. acc.)         AngularGrid ... Lebedev-302
Angular grid pruning method      GridPruning ... 3 (G Style)
Weight generation scheme         WeightScheme... Becke
Basis function cutoff            BFCut       ...    1.0000e-11
Integration weight cutoff        WCut        ...    1.0000e-14
Grids for H and He will be reduced by one unit

# of grid points (after initial pruning)     ...  57718 (   0.0 sec)
# of grid points (after weights+screening)   ...  54497 (   0.2 sec)
nearest neighbour list constructed           ...    0.0 sec
Grid point re-assignment to atoms done       ...    0.0 sec
Grid point division into batches done        ...    0.3 sec
Reduced shell lists constructed in    1.5 sec

Total number of grid points                  ...    54497
Total number of batches                      ...      858
Average number of points per batch           ...       63
Average number of grid points per atom       ...     4541
Average number of shells per batch           ...    55.30 (54.75%)
Average number of basis functions per batch  ...   146.00 (56.37%)
Average number of large shells per batch     ...    41.58 (75.19%)
Average number of large basis fcns per batch ...   106.88 (73.21%)
Maximum spatial batch extension              ...  31.21, 35.78, 31.14 au
Average spatial batch extension              ...   3.00,  3.08,  3.06 au

Overlap Fitting                  UseSFitting ... on
Two electron COSX terms .... 
Integration Timings:
Total Time                  =   114.9 sec
Basis fcn evaluation        =     0.6 sec
Density evaluation          =     1.3 sec
Integral evaluation         =   110.4 sec
K(P) evaluation             =     1.1 sec
                          .... COSX two electron terms done
COSX two-electron contribution to the gradient
     0:    -0.019632    -0.025156    -0.024378
     1:     0.059622     0.072880     0.059444
     2:     0.100853    -0.081851     0.107917
     3:    -0.105417     0.099058     0.090334
     4:     0.096270     0.099928    -0.096524
     5:    -0.109713    -0.118813     0.100773
     6:     0.105188    -0.118099    -0.107304
     7:    -0.111605     0.082412    -0.121047
     8:    -0.035927    -0.059585    -0.032372
     9:     0.080789    -0.002659    -0.012133
    10:    -0.025302     0.056105    -0.014611
    11:    -0.035022    -0.004116     0.049358
Exchange-correlation gradient    ... done
Dispersion correction            ... 
Entering the calculation of the dispersion correction...

Checking the input atom types...

Done
done

                *********************************************
                * UNRELAXED MP2 DENSITY POPULATION ANALYSIS *
                *********************************************

------------------------------------------------------------------------------
                           ORCA POPULATION ANALYSIS
------------------------------------------------------------------------------
Input electron density              ... PbMACl3_mp2_2.orca.pmp2ur
BaseName (.gbw .S,...)              ... PbMACl3_mp2_2.orca

                    ********************************
                    * MULLIKEN POPULATION ANALYSIS *
                    ********************************

-----------------------
MULLIKEN ATOMIC CHARGES
-----------------------
   0 C :   -0.257647
   1 N :   -0.314975
   2 H :    0.161709
   3 H :    0.172082
   4 H :    0.162602
   5 H :    0.290670
   6 H :    0.290609
   7 H :    0.291272
   8 Pb:    0.824679
   9 Cl:   -0.466883
  10 Cl:   -0.558511
  11 Cl:   -0.595607
Sum of atomic charges:    0.0000000

--------------------------------
MULLIKEN REDUCED ORBITAL CHARGES
--------------------------------
  0 C s       :     3.277119  s :     3.277119
      pz      :     0.972800  p :     2.897091
      px      :     0.992564
      py      :     0.931727
      dz2     :     0.008312  d :     0.076295
      dxz     :     0.019807
      dyz     :     0.019481
      dx2y2   :     0.009314
      dxy     :     0.019381
      f0      :     0.000506  f :     0.007143
      f+1     :     0.000662
      f-1     :     0.000872
      f+2     :     0.000914
      f-2     :     0.002768
      f+3     :     0.000674
      f-3     :     0.000748
  1 N s       :     3.423935  s :     3.423935
      pz      :     1.281258  p :     3.829255
      px      :     1.275632
      py      :     1.272365
      dz2     :     0.007459  d :     0.058556
      dxz     :     0.014973
      dyz     :     0.013665
      dx2y2   :     0.007908
      dxy     :     0.014551
      f0      :     0.000267  f :     0.003229
      f+1     :     0.000313
      f-1     :     0.000353
      f+2     :     0.000368
      f-2     :     0.001294
      f+3     :     0.000308
      f-3     :     0.000326
  2 H s       :     0.815511  s :     0.815511
      pz      :     0.008730  p :     0.022780
      px      :     0.008109
      py      :     0.005941
  3 H s       :     0.805012  s :     0.805012
      pz      :     0.007327  p :     0.022906
      px      :     0.007724
      py      :     0.007855
  4 H s       :     0.814624  s :     0.814624
      pz      :     0.007038  p :     0.022774
      px      :     0.007746
      py      :     0.007991
  5 H s       :     0.674386  s :     0.674386
      pz      :     0.009361  p :     0.034945
      px      :     0.012917
      py      :     0.012666
  6 H s       :     0.668826  s :     0.668826
      pz      :     0.014084  p :     0.040565
      px      :     0.010332
      py      :     0.016149
  7 H s       :     0.667927  s :     0.667927
      pz      :     0.016635  p :     0.040800
      px      :     0.016267
      py      :     0.007897
  8 Pbs       :     3.902444  s :     3.902444
      pz      :     2.334123  p :     7.068017
      px      :     2.359994
      py      :     2.373900
      dz2     :     2.021395  d :    10.107758
      dxz     :     2.026339
      dyz     :     2.016493
      dx2y2   :     2.021063
      dxy     :     2.022468
      f0      :     0.014411  f :     0.097101
      f+1     :     0.014133
      f-1     :     0.010364
      f+2     :     0.014095
      f-2     :     0.006598
      f+3     :     0.017114
      f-3     :     0.020385
  9 Cls       :     5.940599  s :     5.940599
      pz      :     3.880622  p :    11.450729
      px      :     3.684266
      py      :     3.885841
      dz2     :     0.012166  d :     0.070656
      dxz     :     0.014259
      dyz     :     0.009517
      dx2y2   :     0.020299
      dxy     :     0.014416
      f0      :     0.000580  f :     0.004898
      f+1     :     0.000812
      f-1     :     0.000430
      f+2     :     0.000725
      f-2     :     0.000436
      f+3     :     0.001067
      f-3     :     0.000848
 10 Cls       :     5.954945  s :     5.954945
      pz      :     3.917148  p :    11.547483
      px      :     3.898486
      py      :     3.731850
      dz2     :     0.009966  d :     0.052880
      dxz     :     0.009766
      dyz     :     0.009447
      dx2y2   :     0.013141
      dxy     :     0.010561
      f0      :     0.000429  f :     0.003203
      f+1     :     0.000414
      f-1     :     0.000487
      f+2     :     0.000447
      f-2     :     0.000410
      f+3     :     0.000499
      f-3     :     0.000517
 11 Cls       :     5.962302  s :     5.962302
      pz      :     3.787910  p :    11.582947
      px      :     3.864943
      py      :     3.930093
      dz2     :     0.011224  d :     0.047427
      dxz     :     0.010766
      dyz     :     0.008674
      dx2y2   :     0.008321
      dxy     :     0.008442
      f0      :     0.000463  f :     0.002931
      f+1     :     0.000504
      f-1     :     0.000408
      f+2     :     0.000410
      f-2     :     0.000395
      f+3     :     0.000372
      f-3     :     0.000379


                     *******************************
                     * LOEWDIN POPULATION ANALYSIS *
                     *******************************

----------------------
LOEWDIN ATOMIC CHARGES
----------------------
   0 C :   -0.270775
   1 N :    0.095558
   2 H :    0.126963
   3 H :    0.130856
   4 H :    0.127454
   5 H :    0.196681
   6 H :    0.169107
   7 H :    0.170823
   8 Pb:   -0.024300
   9 Cl:   -0.005824
  10 Cl:   -0.298636
  11 Cl:   -0.417906

-------------------------------
LOEWDIN REDUCED ORBITAL CHARGES
-------------------------------
  0 C s       :     2.853678  s :     2.853678
      pz      :     1.029323  p :     3.071683
      px      :     1.040030
      py      :     1.002329
      dz2     :     0.029384  d :     0.306884
      dxz     :     0.080227
      dyz     :     0.082809
      dx2y2   :     0.032970
      dxy     :     0.081494
      f0      :     0.005492  f :     0.038531
      f+1     :     0.004098
      f-1     :     0.005862
      f+2     :     0.004502
      f-2     :     0.007509
      f+3     :     0.005148
      f-3     :     0.005919
  1 N s       :     2.998142  s :     2.998142
      pz      :     1.243990  p :     3.727724
      px      :     1.244253
      py      :     1.239482
      dz2     :     0.018973  d :     0.167979
      dxz     :     0.043455
      dyz     :     0.042268
      dx2y2   :     0.020644
      dxy     :     0.042639
      f0      :     0.001624  f :     0.010597
      f+1     :     0.001281
      f-1     :     0.001579
      f+2     :     0.001192
      f-2     :     0.001823
      f+3     :     0.001416
      f-3     :     0.001681
  2 H s       :     0.808810  s :     0.808810
      pz      :     0.023737  p :     0.064227
      px      :     0.022348
      py      :     0.018142
  3 H s       :     0.804641  s :     0.804641
      pz      :     0.020141  p :     0.064503
      px      :     0.023076
      py      :     0.021286
  4 H s       :     0.808318  s :     0.808318
      pz      :     0.021273  p :     0.064228
      px      :     0.021395
      py      :     0.021561
  5 H s       :     0.698284  s :     0.698284
      pz      :     0.031106  p :     0.105035
      px      :     0.037156
      py      :     0.036773
  6 H s       :     0.711260  s :     0.711260
      pz      :     0.040238  p :     0.119633
      px      :     0.033648
      py      :     0.045747
  7 H s       :     0.706841  s :     0.706841
      pz      :     0.048593  p :     0.122335
      px      :     0.047441
      py      :     0.026301
  8 Pbs       :     3.706758  s :     3.706758
      pz      :     2.434277  p :     7.534724
      px      :     2.595606
      py      :     2.504841
      dz2     :     2.118621  d :    10.558688
      dxz     :     2.116642
      dyz     :     2.051548
      dx2y2   :     2.168166
      dxy     :     2.103710
      f0      :     0.029440  f :     0.224131
      f+1     :     0.038043
      f-1     :     0.018622
      f+2     :     0.029128
      f-2     :     0.008703
      f+3     :     0.052344
      f-3     :     0.047850
  9 Cls       :     5.642518  s :     5.642518
      pz      :     3.786664  p :    11.248096
      px      :     3.670753
      py      :     3.790679
      dz2     :     0.020099  d :     0.106583
      dxz     :     0.014806
      dyz     :     0.010641
      dx2y2   :     0.044021
      dxy     :     0.017016
      f0      :     0.000682  f :     0.008627
      f+1     :     0.001936
      f-1     :     0.000483
      f+2     :     0.000955
      f-2     :     0.000441
      f+3     :     0.002851
      f-3     :     0.001280
 10 Cls       :     5.793191  s :     5.793191
      pz      :     3.876056  p :    11.440431
      px      :     3.858645
      py      :     3.705730
      dz2     :     0.011776  d :     0.061287
      dxz     :     0.010308
      dyz     :     0.009574
      dx2y2   :     0.018541
      dxy     :     0.011088
      f0      :     0.000434  f :     0.003726
      f+1     :     0.000441
      f-1     :     0.000629
      f+2     :     0.000499
      f-2     :     0.000420
      f+3     :     0.000585
      f-3     :     0.000719
 11 Cls       :     5.846530  s :     5.846530
      pz      :     3.758480  p :    11.516220
      px      :     3.846050
      py      :     3.911689
      dz2     :     0.014672  d :     0.052004
      dxz     :     0.011748
      dyz     :     0.008752
      dx2y2   :     0.008276
      dxy     :     0.008557
      f0      :     0.000560  f :     0.003153
      f+1     :     0.000608
      f-1     :     0.000420
      f+2     :     0.000412
      f-2     :     0.000396
      f+3     :     0.000373
      f-3     :     0.000383


                      *****************************
                      * MAYER POPULATION ANALYSIS *
                      *****************************

  NA   - Mulliken gross atomic population
  ZA   - Total nuclear charge
  QA   - Mulliken gross atomic charge
  VA   - Mayer's total valence
  BVA  - Mayer's bonded valence
  FA   - Mayer's free valence

  ATOM       NA         ZA         QA         VA         BVA        FA
  0 C      6.2576     6.0000    -0.2576     3.8653     3.7517     0.1136
  1 N      7.3150     7.0000    -0.3150     3.4295     3.2883     0.1413
  2 H      0.8383     1.0000     0.1617     0.9635     0.9453     0.0182
  3 H      0.8279     1.0000     0.1721     0.9626     0.9446     0.0180
  4 H      0.8374     1.0000     0.1626     0.9630     0.9448     0.0182
  5 H      0.7093     1.0000     0.2907     0.9807     0.9593     0.0214
  6 H      0.7094     1.0000     0.2906     0.9539     0.9342     0.0198
  7 H      0.7087     1.0000     0.2913     0.9855     0.9651     0.0204
  8 Pb    21.1753    22.0000     0.8247     2.2465     1.8824     0.3641
  9 Cl    17.4669    17.0000    -0.4669     1.1261     0.8700     0.2561
 10 Cl    17.5585    17.0000    -0.5585     0.9919     0.7300     0.2619
 11 Cl    17.5956    17.0000    -0.5956     0.9371     0.6719     0.2652

  Mayer bond orders larger than 0.1
B(  0-C ,  1-N ) :   0.8777 B(  0-C ,  2-H ) :   0.9537 B(  0-C ,  3-H ) :   0.9515 
B(  0-C ,  4-H ) :   0.9528 B(  1-N ,  5-H ) :   0.8265 B(  1-N ,  6-H ) :   0.8269 
B(  1-N ,  7-H ) :   0.8013 B(  5-H , 11-Cl) :   0.1328 B(  6-H ,  9-Cl) :   0.1055 
B(  7-H , 10-Cl) :   0.1634 B(  8-Pb,  9-Cl) :   0.7513 B(  8-Pb, 10-Cl) :   0.5666 
B(  8-Pb, 11-Cl) :   0.5515 


                *******************************************
                * RELAXED MP2 DENSITY POPULATION ANALYSIS *
                *******************************************

------------------------------------------------------------------------------
                           ORCA POPULATION ANALYSIS
------------------------------------------------------------------------------
Input electron density              ... PbMACl3_mp2_2.orca.pmp2re
BaseName (.gbw .S,...)              ... PbMACl3_mp2_2.orca

                    ********************************
                    * MULLIKEN POPULATION ANALYSIS *
                    ********************************

-----------------------
MULLIKEN ATOMIC CHARGES
-----------------------
   0 C :   -0.275685
   1 N :   -0.309281
   2 H :    0.165635
   3 H :    0.175467
   4 H :    0.166480
   5 H :    0.285429
   6 H :    0.285486
   7 H :    0.284288
   8 Pb:    0.768823
   9 Cl:   -0.443996
  10 Cl:   -0.533961
  11 Cl:   -0.568685
Sum of atomic charges:    0.0000000

--------------------------------
MULLIKEN REDUCED ORBITAL CHARGES
--------------------------------
  0 C s       :     3.280471  s :     3.280471
      pz      :     0.979221  p :     2.916203
      px      :     0.998548
      py      :     0.938435
      dz2     :     0.008497  d :     0.072032
      dxz     :     0.018249
      dyz     :     0.017952
      dx2y2   :     0.009493
      dxy     :     0.017841
      f0      :     0.000486  f :     0.006979
      f+1     :     0.000654
      f-1     :     0.000858
      f+2     :     0.000907
      f-2     :     0.002685
      f+3     :     0.000658
      f-3     :     0.000732
  1 N s       :     3.424108  s :     3.424108
      pz      :     1.279847  p :     3.825111
      px      :     1.274718
      py      :     1.270546
      dz2     :     0.007592  d :     0.056892
      dxz     :     0.014355
      dyz     :     0.013023
      dx2y2   :     0.008057
      dxy     :     0.013864
      f0      :     0.000263  f :     0.003170
      f+1     :     0.000312
      f-1     :     0.000353
      f+2     :     0.000367
      f-2     :     0.001246
      f+3     :     0.000304
      f-3     :     0.000325
  2 H s       :     0.811961  s :     0.811961
      pz      :     0.008545  p :     0.022404
      px      :     0.007964
      py      :     0.005895
  3 H s       :     0.802016  s :     0.802016
      pz      :     0.007223  p :     0.022517
      px      :     0.007577
      py      :     0.007717
  4 H s       :     0.811122  s :     0.811122
      pz      :     0.006932  p :     0.022398
      px      :     0.007621
      py      :     0.007844
  5 H s       :     0.680042  s :     0.680042
      pz      :     0.009256  p :     0.034529
      px      :     0.012753
      py      :     0.012520
  6 H s       :     0.674354  s :     0.674354
      pz      :     0.013947  p :     0.040160
      px      :     0.010237
      py      :     0.015976
  7 H s       :     0.675330  s :     0.675330
      pz      :     0.016431  p :     0.040382
      px      :     0.016076
      py      :     0.007874
  8 Pbs       :     3.918030  s :     3.918030
      pz      :     2.357704  p :     7.111856
      px      :     2.368101
      py      :     2.386051
      dz2     :     2.019366  d :    10.105774
      dxz     :     2.026649
      dyz     :     2.017298
      dx2y2   :     2.019158
      dxy     :     2.023302
      f0      :     0.014152  f :     0.095517
      f+1     :     0.013795
      f-1     :     0.010213
      f+2     :     0.013965
      f-2     :     0.006569
      f+3     :     0.016767
      f-3     :     0.020057
  9 Cls       :     5.940299  s :     5.940299
      pz      :     3.872129  p :    11.427774
      px      :     3.678899
      py      :     3.876746
      dz2     :     0.012189  d :     0.071013
      dxz     :     0.014332
      dyz     :     0.009617
      dx2y2   :     0.020247
      dxy     :     0.014628
      f0      :     0.000585  f :     0.004911
      f+1     :     0.000808
      f-1     :     0.000432
      f+2     :     0.000733
      f-2     :     0.000437
      f+3     :     0.001060
      f-3     :     0.000856
 10 Cls       :     5.955776  s :     5.955776
      pz      :     3.910168  p :    11.522189
      px      :     3.891065
      py      :     3.720956
      dz2     :     0.009936  d :     0.052778
      dxz     :     0.009804
      dyz     :     0.009490
      dx2y2   :     0.013085
      dxy     :     0.010461
      f0      :     0.000431  f :     0.003218
      f+1     :     0.000417
      f-1     :     0.000488
      f+2     :     0.000451
      f-2     :     0.000411
      f+3     :     0.000501
      f-3     :     0.000519
 11 Cls       :     5.963361  s :     5.963361
      pz      :     3.775566  p :    11.555175
      px      :     3.855500
      py      :     3.924110
      dz2     :     0.011198  d :     0.047205
      dxz     :     0.010576
      dyz     :     0.008718
      dx2y2   :     0.008285
      dxy     :     0.008428
      f0      :     0.000466  f :     0.002943
      f+1     :     0.000507
      f-1     :     0.000410
      f+2     :     0.000411
      f-2     :     0.000397
      f+3     :     0.000372
      f-3     :     0.000379


                     *******************************
                     * LOEWDIN POPULATION ANALYSIS *
                     *******************************

----------------------
LOEWDIN ATOMIC CHARGES
----------------------
   0 C :   -0.280292
   1 N :    0.091835
   2 H :    0.129023
   3 H :    0.132745
   4 H :    0.129516
   5 H :    0.195468
   6 H :    0.167998
   7 H :    0.168883
   8 Pb:   -0.055126
   9 Cl:    0.002614
  10 Cl:   -0.283959
  11 Cl:   -0.398704

-------------------------------
LOEWDIN REDUCED ORBITAL CHARGES
-------------------------------
  0 C s       :     2.854940  s :     2.854940
      pz      :     1.033713  p :     3.084868
      px      :     1.044301
      py      :     1.006855
      dz2     :     0.029573  d :     0.302194
      dxz     :     0.078625
      dyz     :     0.081069
      dx2y2   :     0.033149
      dxy     :     0.079779
      f0      :     0.005471  f :     0.038289
      f+1     :     0.004079
      f-1     :     0.005845
      f+2     :     0.004471
      f-2     :     0.007401
      f+3     :     0.005115
      f-3     :     0.005908
  1 N s       :     2.999753  s :     2.999753
      pz      :     1.244807  p :     3.730115
      px      :     1.245330
      py      :     1.239979
      dz2     :     0.019200  d :     0.167639
      dxz     :     0.043248
      dyz     :     0.041975
      dx2y2   :     0.020896
      dxy     :     0.042319
      f0      :     0.001638  f :     0.010659
      f+1     :     0.001287
      f-1     :     0.001589
      f+2     :     0.001193
      f-2     :     0.001833
      f+3     :     0.001424
      f-3     :     0.001694
  2 H s       :     0.806671  s :     0.806671
      pz      :     0.023714  p :     0.064305
      px      :     0.022358
      py      :     0.018233
  3 H s       :     0.802711  s :     0.802711
      pz      :     0.020174  p :     0.064545
      px      :     0.023071
      py      :     0.021299
  4 H s       :     0.806190  s :     0.806190
      pz      :     0.021314  p :     0.064293
      px      :     0.021413
      py      :     0.021567
  5 H s       :     0.699626  s :     0.699626
      pz      :     0.031040  p :     0.104906
      px      :     0.037107
      py      :     0.036759
  6 H s       :     0.712490  s :     0.712490
      pz      :     0.040198  p :     0.119511
      px      :     0.033599
      py      :     0.045714
  7 H s       :     0.708914  s :     0.708914
      pz      :     0.048540  p :     0.122203
      px      :     0.047384
      py      :     0.026279
  8 Pbs       :     3.718955  s :     3.718955
      pz      :     2.452597  p :     7.563086
      px      :     2.598811
      py      :     2.511678
      dz2     :     2.115533  d :    10.551206
      dxz     :     2.115873
      dyz     :     2.051924
      dx2y2   :     2.164487
      dxy     :     2.103388
      f0      :     0.029012  f :     0.221880
      f+1     :     0.037671
      f-1     :     0.018377
      f+2     :     0.028778
      f-2     :     0.008641
      f+3     :     0.052125
      f-3     :     0.047275
  9 Cls       :     5.645817  s :     5.645817
      pz      :     3.780713  p :    11.233666
      px      :     3.668619
      py      :     3.784334
      dz2     :     0.020510  d :     0.109072
      dxz     :     0.015210
      dyz     :     0.010759
      dx2y2   :     0.045165
      dxy     :     0.017428
      f0      :     0.000698  f :     0.008831
      f+1     :     0.001982
      f-1     :     0.000487
      f+2     :     0.000982
      f-2     :     0.000443
      f+3     :     0.002930
      f-3     :     0.001310
 10 Cls       :     5.796181  s :     5.796181
      pz      :     3.870736  p :    11.422225
      px      :     3.853270
      py      :     3.698218
      dz2     :     0.011852  d :     0.061781
      dxz     :     0.010384
      dyz     :     0.009686
      dx2y2   :     0.018753
      dxy     :     0.011107
      f0      :     0.000438  f :     0.003772
      f+1     :     0.000443
      f-1     :     0.000638
      f+2     :     0.000506
      f-2     :     0.000422
      f+3     :     0.000595
      f-3     :     0.000729
 11 Cls       :     5.849168  s :     5.849168
      pz      :     3.748814  p :    11.494256
      px      :     3.838554
      py      :     3.906888
      dz2     :     0.014790  d :     0.052105
      dxz     :     0.011705
      dyz     :     0.008792
      dx2y2   :     0.008254
      dxy     :     0.008564
      f0      :     0.000566  f :     0.003175
      f+1     :     0.000618
      f-1     :     0.000422
      f+2     :     0.000415
      f-2     :     0.000398
      f+3     :     0.000374
      f-3     :     0.000384


                      *****************************
                      * MAYER POPULATION ANALYSIS *
                      *****************************

  NA   - Mulliken gross atomic population
  ZA   - Total nuclear charge
  QA   - Mulliken gross atomic charge
  VA   - Mayer's total valence
  BVA  - Mayer's bonded valence
  FA   - Mayer's free valence

  ATOM       NA         ZA         QA         VA         BVA        FA
  0 C      6.2757     6.0000    -0.2757     3.8669     3.7536     0.1133
  1 N      7.3093     7.0000    -0.3093     3.4335     3.2926     0.1409
  2 H      0.8344     1.0000     0.1656     0.9623     0.9441     0.0182
  3 H      0.8245     1.0000     0.1755     0.9616     0.9436     0.0180
  4 H      0.8335     1.0000     0.1665     0.9619     0.9438     0.0181
  5 H      0.7146     1.0000     0.2854     0.9871     0.9658     0.0213
  6 H      0.7145     1.0000     0.2855     0.9598     0.9401     0.0197
  7 H      0.7157     1.0000     0.2843     0.9928     0.9725     0.0202
  8 Pb    21.2312    22.0000     0.7688     2.3283     1.9694     0.3588
  9 Cl    17.4440    17.0000    -0.4440     1.1680     0.9132     0.2548
 10 Cl    17.5340    17.0000    -0.5340     1.0349     0.7745     0.2604
 11 Cl    17.5687    17.0000    -0.5687     0.9826     0.7193     0.2633

  Mayer bond orders larger than 0.1
B(  0-C ,  1-N ) :   0.8859 B(  0-C ,  2-H ) :   0.9510 B(  0-C ,  3-H ) :   0.9488 
B(  0-C ,  4-H ) :   0.9501 B(  1-N ,  5-H ) :   0.8235 B(  1-N ,  6-H ) :   0.8231 
B(  1-N ,  7-H ) :   0.7978 B(  5-H , 11-Cl) :   0.1422 B(  6-H ,  9-Cl) :   0.1151 
B(  7-H , 10-Cl) :   0.1745 B(  8-Pb,  9-Cl) :   0.7774 B(  8-Pb, 10-Cl) :   0.5923 
B(  8-Pb, 11-Cl) :   0.5839 


-------
TIMINGS
-------

Total time                :  757.523 sec
Integral trafo            :    3.830 sec (  0.5%)
I/O of integrals          :    0.531 sec (  0.1%)
K(i,j) Operators          :   11.179 sec (  1.5%)
T(i,j) pair energies      :    2.389 sec (  0.3%)
V-calculation             :    0.021 sec (  0.0%)
V**(-1/2)                 :    0.039 sec (  0.0%)
Gamma(ia|P)               :   10.012 sec (  1.3%)
Gamma-Trafo               :    1.435 sec (  0.2%)
D(virtual)                :    4.343 sec (  0.6%)
D(internal)               :    8.041 sec (  1.1%)
W(virtual)                :    8.566 sec (  1.1%)
W(internal)               :   17.603 sec (  2.3%)
L(virtual)                :    9.690 sec (  1.3%)
L(internal)               :    0.633 sec (  0.1%)
G(D)                      :   18.917 sec (  2.5%)
G(Z)                      :   18.983 sec (  2.5%)
Z-Vector Solution         :  500.159 sec ( 66.0%)
Z-Vector Solution         :  500.159 sec ( 66.0%)
3-Index Derivative 
+ Separable RIJ part      :    6.899 sec (  0.9%)
2-Index Derivative 
+ Separable RIJ part      :    0.047 sec (  0.0%)
Separable Gradient (COSX) :  131.090 sec ( 17.3%)


---------------------------------------
MP2 TOTAL ENERGY:    -1669.585896078 Eh
---------------------------------------

The final MP2 gradient
  0:  -0.00101709  -0.00023490  -0.00281270
  1:   0.00690918   0.01244239   0.00131262
  2:   0.00276296  -0.00233508   0.00296275
  3:  -0.00255147   0.00308342   0.00290552
  4:   0.00318584   0.00327519  -0.00196179
  5:  -0.00409677  -0.00928905   0.00215349
  6:   0.00217725  -0.00776855  -0.00706413
  7:   0.00217099   0.00046043  -0.00101437
  8:   0.11309077   0.00581836  -0.00875660
  9:  -0.09108471  -0.00839088  -0.00091391
 10:  -0.01036724   0.00639949  -0.00299946
 11:  -0.02105775  -0.00340158   0.01567576

-----------------------------------
NORM OF THE MP2 GRADIENT:  0.150462
-----------------------------------

Entering the calculation of the dispersion correction...

Checking the input atom types...

Done


-------------------------------------------------------------------------------
                          DFT DISPERSION CORRECTION                            
                                                                               
                                DFTD3 V2.1  Rev 6                               
                          USING Becke-Johnson damping                          
-------------------------------------------------------------------------------
The B2PLYP functional is recognized
Active option DFTDOPT                   ...         4   

molecular C6(AA) [au] = 4882.190436 


            DFT-D V3
 parameters
 s6 scaling factor         :     0.6400 
 a1 scaling factor         :     0.3065 
 s8 scaling factor         :     0.9147 
 a2 scaling factor         :     5.0570 
 ad hoc parameters k1-k3   :    16.0000     1.3333    -4.0000 

 Edisp/kcal,au: -8.239909720134  -0.013131130575 
 E6   /kcal   :  -3.770985291 
 E8   /kcal   :  -4.468924429 
 % E8         :  54.235113986 

-------------------------   ----------------
Dispersion correction           -0.013131131
-------------------------   ----------------


-------------------------   --------------------
FINAL SINGLE POINT ENERGY     -1669.599027208989
-------------------------   --------------------


                            ***************************************
                            *     ORCA property calculations      *
                            ***************************************


  WARNING: The energy has been calculated at the MP2 level but the densities
           used in the property calculations are still SCF densities
           MP2 response densities have not been calculated 
           use %mp2 Density relaxed end
           or  %mp2 Density unrelaxed end

                                    ---------------------
                                    Active property flags
                                    ---------------------
   (+) Dipole Moment


------------------------------------------------------------------------------
                       ORCA ELECTRIC PROPERTIES CALCULATION
------------------------------------------------------------------------------

Dipole Moment Calculation                       ... on
Quadrupole Moment Calculation                   ... off
Polarizability Calculation                      ... off
GBWName                                         ... PbMACl3_mp2_2.orca.gbw
Electron density file                           ... PbMACl3_mp2_2.orca.scfp.tmp

-------------
DIPOLE MOMENT
-------------
                                X             Y             Z
Electronic contribution:    -45.13125     -98.78458     -75.14061
Nuclear contribution   :     47.93902      99.85676      75.48845
                        -----------------------------------------
Total Dipole Moment    :      2.80777       1.07218       0.34784
                        -----------------------------------------
Magnitude (a.u.)       :      3.02558
Magnitude (Debye)      :      7.69042


                         *** MP2 UNRELAXED DENSITY ***

------------------------------------------------------------------------------
                       ORCA ELECTRIC PROPERTIES CALCULATION
------------------------------------------------------------------------------

Dipole Moment Calculation                       ... on
Quadrupole Moment Calculation                   ... off
Polarizability Calculation                      ... off
GBWName                                         ... PbMACl3_mp2_2.orca.gbw
Electron density file                           ... PbMACl3_mp2_2.orca.pmp2ur

-------------
DIPOLE MOMENT
-------------
                                X             Y             Z
Electronic contribution:    -45.14673     -98.77290     -75.12662
Nuclear contribution   :     47.93902      99.85676      75.48845
                        -----------------------------------------
Total Dipole Moment    :      2.79229       1.08386       0.36183
                        -----------------------------------------
Magnitude (a.u.)       :      3.01705
Magnitude (Debye)      :      7.66872


                           *** MP2 RELAXED DENSITY ***

------------------------------------------------------------------------------
                       ORCA ELECTRIC PROPERTIES CALCULATION
------------------------------------------------------------------------------

Dipole Moment Calculation                       ... on
Quadrupole Moment Calculation                   ... off
Polarizability Calculation                      ... off
GBWName                                         ... PbMACl3_mp2_2.orca.gbw
Electron density file                           ... PbMACl3_mp2_2.orca.pmp2re

-------------
DIPOLE MOMENT
-------------
                                X             Y             Z
Electronic contribution:    -45.22961     -98.78698     -75.11161
Nuclear contribution   :     47.93902      99.85676      75.48845
                        -----------------------------------------
Total Dipole Moment    :      2.70941       1.06978       0.37684
                        -----------------------------------------
Magnitude (a.u.)       :      2.93723
Magnitude (Debye)      :      7.46585


Timings for individual modules:

Sum of individual times         ...     1040.078 sec (=  17.335 min)
GTO integral calculation        ...        0.886 sec (=   0.015 min)   0.1 %
SCF iterations                  ...      279.686 sec (=   4.661 min)  26.9 %
MP2 module                      ...      759.506 sec (=  12.658 min)  73.0 %
                             ****ORCA TERMINATED NORMALLY****
TOTAL RUN TIME: 0 days 0 hours 17 minutes 20 seconds 790 msec
