
                                 *****************
                                 * O   R   C   A *
                                 *****************

           --- An Ab Initio, DFT and Semiempirical electronic structure package ---

                  #######################################################
                  #                        -***-                        #
                  #  Department of molecular theory and spectroscopy    #
                  #              Directorship: Frank Neese              #
                  # Max Planck Institute for Chemical Energy Conversion #
                  #                  D-45470 Muelheim/Ruhr              #
                  #                       Germany                       #
                  #                                                     #
                  #                  All rights reserved                #
                  #                        -***-                        #
                  #######################################################


                         Program Version 3.0.3 - RELEASE   -


 With contributions from (in alphabetic order):
   Ute Becker             : Parallelization
   Dmytro Bykov           : SCF Hessian
   Dmitry Ganyushin       : Spin-Orbit,Spin-Spin,Magnetic field MRCI
   Andreas Hansen         : Spin unrestricted coupled pair/coupled cluster methods
   Dimitrios Liakos       : Extrapolation schemes; parallel MDCI
   Robert Izsak           : Overlap fitted RIJCOSX, COSX-SCS-MP3
   Christian Kollmar      : KDIIS, OOCD, Brueckner-CCSD(T), CCSD density
   Simone Kossmann        : Meta GGA functionals, TD-DFT gradient, OOMP2, MP2 Hessian
   Taras Petrenko         : DFT Hessian,TD-DFT gradient, ASA and ECA modules, normal mode analysis, Resonance Raman, ABS, FL, XAS/XES, NRVS
   Christoph Reimann      : Effective Core Potentials
   Michael Roemelt        : Restricted open shell CIS
   Christoph Riplinger    : Improved optimizer, TS searches, QM/MM, DLPNO-CCSD
   Barbara Sandhoefer     : DKH picture change effects
   Igor Schapiro          : Molecular dynamics
   Kantharuban Sivalingam : CASSCF convergence, NEVPT2
   Boris Wezisla          : Elementary symmetry handling
   Frank Wennmohs         : Technical directorship


 We gratefully acknowledge several colleagues who have allowed us to
 interface, adapt or use parts of their codes:
   Stefan Grimme, W. Hujo, H. Kruse, T. Risthaus : VdW corrections, initial TS optimization,
                                                   DFT functionals, gCP
   Ed Valeev                                     : LibInt (2-el integral package), F12 methods
   Garnet Chan, S. Sharma, R. Olivares           : DMRG
   Ulf Ekstrom                                   : XCFun DFT Library
   Mihaly Kallay                                 : mrcc  (arbitrary order and MRCC methods)
   Andreas Klamt, Michael Diedenhofen            : otool_cosmo (COSMO solvation model)
   Frank Weinhold                                : gennbo (NPA and NBO analysis)
   Christopher J. Cramer and Donald G. Truhlar   : smd solvation model


 Your calculation uses the libint2 library for the computation of 2-el integrals
 For citations please refer to: http://libint.valeyev.net

 This ORCA versions uses:
   CBLAS   interface :  Fast vector & matrix operations
   LAPACKE interface :  Fast linear algebra routines
   SCALAPACK package :  Parallel linear algebra routines


Your calculation utilizes the basis: Ahlrichs-TZV
Cite in your paper:
H - Kr: A. Schaefer, H. Horn and R. Ahlrichs, J. Chem. Phys. 97, 2571 (1992).

The def2-TZV basis will be loaded
Cite in your paper:
 	F. Weigend, R. Ahlrichs, Phys. Chem. Chem. Phys. 2005, 7, 3297.

Your calculation utilizes the atom-pairwise dispersion correction
with the Becke-Johnson damping scheme (D3BJ)
Cite in your paper:
S.Grimme, S.Ehrlich, L.Goerigk, J Comput Chem, (2011), 32, 1456–1465 
S.Grimme, J.Antony, S.Ehrlich and H.Krieg, J.Chem.Phys., 132, (2010), 154104 
   

================================================================================
                                        WARNINGS
                       Please study these warnings very carefully!
================================================================================

WARNING: The RI method has been chosen with no auxiliary basis (AUX or GTOAUX in BASIS block)
        Standard TZV/J expansion basis used (GTOAUX=TZV_J)

Now building the actual basis set
cite the ECPs for Pb [SD(60,MDF)] as follows:
  B. Metz, H. Stoll, M. Dolg, J. Chem. Phys. 113, 2563 (2000).

ECP parameters for Pb [SD(60,MDF)] have been obtained from:
  pseudopotential library of the Stuttgart/Cologne group
  http://www.theochem.uni-stuttgart.de/pseudopotentials/

cite the ECP basis sets for Pb [DEF2-TZVP] as follows:
  F. Weigend, R. Ahlrichs; Phys. Chem. Chem. Phys. 7, 3297(2005).

ECP basis sets for Pb [DEF2-TZVP] have been obtained from:
  Turbomole basis set library
  ftp://ftp.chemie.uni-karlsruhe.de/pub/basen/



INFO   : the flag for use of LIBINT has been found!

================================================================================
                                       INPUT FILE
================================================================================
NAME = PbMACl3_mp2_1.orca
|  1> ! RIJCOSX RI-B2PLYP D3BJ def2-TZVP ECP{def2-TZVP} TIGHTSCF Grid5 FinalGrid6 SlowConv MORead
|  2> %method
|  3>  RunTyp Gradient
|  4>  end
|  5> %maxcore 1000
|  6> %moinp "previous.gbw"
|  7> *xyz 0 1
|  8> C 2.905719 3.576013 2.873338
|  9> N 2.134625 2.614408 2.046990
| 10> H 3.548796 3.021424 3.560517
| 11> H 2.209179 4.197444 3.440826
| 12> H 3.515705 4.204875 2.220874
| 13> H 1.516852 1.975028 2.601630
| 14> H 2.717740 1.973704 1.464858
| 15> H 1.486857 3.059076 1.361735
| 16> Pb 0.185789 0.131547 0.209487
| 17> Cl 2.758188 0.268387 0.089874
| 18> Cl -0.183078 2.735046 -0.108798
| 19> Cl 0.181488 0.320768 2.851419
| 20> *
| 21> 
| 22>                          ****END OF INPUT****
================================================================================

                     *******************************
                     * Energy+Gradient Calculation *
                     *******************************

---------------------------------
CARTESIAN COORDINATES (ANGSTROEM)
---------------------------------
  C      2.905719    3.576013    2.873338
  N      2.134625    2.614408    2.046990
  H      3.548796    3.021424    3.560517
  H      2.209179    4.197444    3.440826
  H      3.515705    4.204875    2.220874
  H      1.516852    1.975028    2.601630
  H      2.717740    1.973704    1.464858
  H      1.486857    3.059076    1.361735
  Pb     0.185789    0.131547    0.209487
  Cl     2.758188    0.268387    0.089874
  Cl    -0.183078    2.735046   -0.108798
  Cl     0.181488    0.320768    2.851419

----------------------------
CARTESIAN COORDINATES (A.U.)
----------------------------
  NO LB      ZA    FRAG    MASS        X           Y           Z
   0 C     6.0000    0    12.011          5.491013132131525          6.757685221342137          5.429821910189021
   1 N     7.0000    0    14.007          4.033856648621652          4.940515122332791          3.868250498875463
   2 H     1.0000    0     1.008          6.706252545155202          5.709663894456884          6.728402025170893
   3 H     1.0000    0     1.008          4.174743290810016          7.932019622470954          6.502218814475724
   4 H     1.0000    0     1.008          6.643719617657614          7.946062177372124          4.196843637946225
   5 H     1.0000    0     1.008          2.866434865690719          3.732262026826222          4.916368201793546
   6 H     1.0000    0     1.008          5.135784303203143          3.729760029424910          2.768180445083617
   7 H     1.0000    0     1.008          2.809752530303751          5.780815862851287          2.573306216975256
   8 Pb   22.0000*   0   207.200  0.351090328695095  0.248587803738939  0.395873058616761
   9 Cl   17.0000    0    35.453          5.212219945867989          0.507177927904723          0.169837246560039
  10 Cl   17.0000    0    35.453         -0.345967281146035          5.168487903676784         -0.205598423918364
  11 Cl   17.0000    0    35.453          0.342962616593100          0.606163672525652          5.388401003059601
* core charge reduced due to ECP

--------------------------------
INTERNAL COORDINATES (ANGSTROEM)
--------------------------------
 C      0   0   0   0.000000     0.000     0.000
 N      1   0   0   1.483955     0.000     0.000
 H      1   2   0   1.092397   109.099     0.000
 H      1   2   3   1.092423   109.061   240.173
 H      1   2   3   1.092364   109.305   120.114
 H      2   1   3   1.047891   114.015    60.210
 H      2   1   3   1.043744   114.712   299.789
 H      2   1   3   1.042549   114.361   179.707
 Pb     6   2   1   3.300379   101.241   180.930
 Cl     7   2   1   2.190964   146.942   175.288
 Cl     8   2   1   2.248587   146.081   189.637
 Cl     6   2   1   2.140600   154.299   186.946

---------------------------
INTERNAL COORDINATES (A.U.)
---------------------------
 C      0   0   0   0.000000     0.000     0.000
 N      1   0   0   2.804268     0.000     0.000
 H      1   2   0   2.064332   109.099     0.000
 H      1   2   3   2.064379   109.061   240.173
 H      1   2   3   2.064269   109.305   120.114
 H      2   1   3   1.980227   114.015    60.210
 H      2   1   3   1.972391   114.712   299.789
 H      2   1   3   1.970131   114.361   179.707
 Pb     6   2   1   6.236812   101.241   180.930
 Cl     7   2   1   4.140322   146.942   175.288
 Cl     8   2   1   4.249215   146.081   189.637
 Cl     6   2   1   4.045147   154.299   186.946

---------------------
BASIS SET INFORMATION
---------------------
There are 5 groups of distinct atoms

 Group   1 Type C   : 11s6p2d1f contracted to 5s3p2d1f pattern {62111/411/11/1}
 Group   2 Type N   : 11s6p2d1f contracted to 5s3p2d1f pattern {62111/411/11/1}
 Group   3 Type H   : 5s1p contracted to 3s1p pattern {311/1}
 Group   4 Type Pb  : 10s9p8d2f contracted to 6s5p3d2f pattern {421111/33111/611/11}
 Group   5 Type Cl  : 14s9p3d1f contracted to 5s5p2d1f pattern {73211/51111/21/1}

Atom   0C    basis set group =>   1
Atom   1N    basis set group =>   2
Atom   2H    basis set group =>   3
Atom   3H    basis set group =>   3
Atom   4H    basis set group =>   3
Atom   5H    basis set group =>   3
Atom   6H    basis set group =>   3
Atom   7H    basis set group =>   3
Atom   8Pb   basis set group =>   4
Atom   9Cl   basis set group =>   5
Atom  10Cl   basis set group =>   5
Atom  11Cl   basis set group =>   5
-------------------------------
AUXILIARY BASIS SET INFORMATION
-------------------------------
There are 5 groups of distinct atoms

 Group   1 Type C   : 12s5p4d2f1g contracted to 6s4p3d1f1g pattern {711111/2111/211/2/1}
 Group   2 Type N   : 12s5p4d2f1g contracted to 6s4p3d1f1g pattern {711111/2111/211/2/1}
 Group   3 Type H   : 5s2p1d contracted to 3s1p1d pattern {311/2/1}
 Group   4 Type Pb  : 31s12p8d6f3g contracted to 31s12p8d6f3g pattern {1111111111111111111111111111111/111111111111/11111111/111111/111}
 Group   5 Type Cl  : 14s5p5d2f1g contracted to 8s4p3d1f1g pattern {71111111/2111/311/2/1}

Atom   0C    basis set group =>   1
Atom   1N    basis set group =>   2
Atom   2H    basis set group =>   3
Atom   3H    basis set group =>   3
Atom   4H    basis set group =>   3
Atom   5H    basis set group =>   3
Atom   6H    basis set group =>   3
Atom   7H    basis set group =>   3
Atom   8Pb   basis set group =>   4
Atom   9Cl   basis set group =>   5
Atom  10Cl   basis set group =>   5
Atom  11Cl   basis set group =>   5

-------------------------
ECP PARAMETER INFORMATION
-------------------------

 Group 1, Type Pb ECP SD(60,MDF) (replacing 60 core electrons, lmax=5)

Atom   8Pb   ECP group =>   1


------------------------------------------------------------------------------
                           ORCA GTO INTEGRAL CALCULATION
                           -- RI-GTO INTEGRALS CHOSEN --
------------------------------------------------------------------------------

                         BASIS SET STATISTICS AND STARTUP INFO

Gaussian basis set:
 # of primitive gaussian shells          ...  186
 # of primitive gaussian functions       ...  420
 # of contracted shells                  ...  101
 # of contracted basis functions         ...  259
 Highest angular momentum                ...    3
 Maximum contraction depth               ...    7
Auxiliary gaussian basis set:
 # of primitive gaussian shells          ...  237
 # of primitive gaussian functions       ...  643
 # of contracted shells                  ...  171
 # of contracted aux-basis functions     ...  493
 Highest angular momentum                ...    4
 Maximum contraction depth               ...    7
Ratio of auxiliary to basis functions    ...  1.90
Integral package used                  ... LIBINT
 One Electron integrals                  
   ECP integrals                         ... done
 Ordering auxiliary basis shells         ... done
 Integral threshhold             Thresh  ...  2.500e-11
 Primitive cut-off               TCut    ...  2.500e-12
 Pre-screening matrix                    ... done
 Shell pair data                         ... 
 Ordering of the shell pairs             ... done (   0.001 sec) 4417 of 5151 pairs
 Determination of significant pairs      ... done (   0.000 sec)
 Creation of shell pair data             ... done (   0.002 sec)
 Storage of shell pair data              ... done (   0.001 sec)
 Shell pair data done in (   0.003 sec)
 Computing two index integrals           ... done
 Cholesky decomposition of the V-matrix  ... done


Timings:
 Total evaluation time                   ...   0.541 sec (  0.009 min)
 One electron matrix time                ...   0.273 sec (  0.005 min) = 50.5%
 Schwartz matrix evaluation time         ...   0.222 sec (  0.004 min) = 41.0%
 Two index repulsion integral time       ...   0.008 sec (  0.000 min) =  1.5%
 Cholesky decomposition of V             ...   0.008 sec (  0.000 min) =  1.4%
 Three index repulsion integral time     ...   0.000 sec (  0.000 min) =  0.0%

-------------------------------------------------------------------------------
                                 ORCA SCF
-------------------------------------------------------------------------------

------------
SCF SETTINGS
------------
Hamiltonian:
 Density Functional     Method          .... DFT(GTOs)
 Exchange Functional    Exchange        .... B88
   X-Alpha parameter    XAlpha          ....  0.666667
   Becke's b parameter  XBeta           ....  0.004200
 Correlation Functional Correlation     .... LYP
 LDA part of GGA corr.  LDAOpt          .... VWN-3
 Gradients option       PostSCFGGA      .... off
 Hybrid DFT is turned on
   Fraction HF Exchange ScalHFX         ....  0.530000
   Scaling of DF-GGA-X  ScalDFX         ....  0.470000
   Scaling of DF-GGA-C  ScalDFC         ....  0.730000
   Scaling of DF-LDA-C  ScalLDAC        ....  0.730000
   Perturbative correction              ....  0.270000
 RI-approximation to the Coulomb term is turned on
   Number of auxiliary basis functions  .... 493
   RIJ-COSX (HFX calculated with COS-X)).... on


General Settings:
 Integral files         IntName         .... PbMACl3_mp2_1.orca
 Hartree-Fock type      HFTyp           .... RHF
 Total Charge           Charge          ....    0
 Multiplicity           Mult            ....    1
 Number of Electrons    NEL             ....   92
 Basis Dimension        Dim             ....  259
 Nuclear Repulsion      ENuc            ....    590.1155283782 Eh

Convergence Acceleration:
 DIIS                   CNVDIIS         .... on
   Start iteration      DIISMaxIt       ....     0
   Startup error        DIISStart       ....  0.200000
   # of expansion vecs  DIISMaxEq       ....     5
   Bias factor          DIISBfac        ....   1.050
   Max. coefficient     DIISMaxC        ....  10.000
 Newton-Raphson         CNVNR           .... off
 SOSCF                  CNVSOSCF        .... on
   Start iteration      SOSCFMaxIt      ....   150
   Startup grad/error   SOSCFStart      ....  0.001000
 Level Shifting         CNVShift        .... on
   Level shift para.    LevelShift      ....    0.2500
   Turn off err/grad.   ShiftErr        ....    0.0000
 Zerner damping         CNVZerner       .... off
 Static damping         CNVDamp         .... on
   Fraction old density DampFac         ....    0.8500
   Max. Damping (<1)    DampMax         ....    0.9800
   Min. Damping (>=0)   DampMin         ....    0.0000
   Turn off err/grad.   DampErr         ....    0.0300
 Fernandez-Rico         CNVRico         .... off

SCF Procedure:
 Maximum # iterations   MaxIter         ....   125
 SCF integral mode      SCFMode         .... Direct
   Integral package                     .... LIBINT
 Reset frequeny         DirectResetFreq ....    20
 Integral Threshold     Thresh          ....  2.500e-11 Eh
 Primitive CutOff       TCut            ....  2.500e-12 Eh

Convergence Tolerance:
 Convergence Check Mode ConvCheckMode   .... Total+1el-Energy
 Energy Change          TolE            ....  1.000e-08 Eh
 1-El. energy change                    ....  1.000e-05 Eh
 Orbital Gradient       TolG            ....  1.000e-05
 Orbital Rotation angle TolX            ....  1.000e-05
 DIIS Error             TolErr          ....  5.000e-07


Diagonalization of the overlap matrix:
Smallest eigenvalue                        ... 1.113e-03
Time for diagonalization                   ...    0.019 sec
Threshold for overlap eigenvalues          ... 1.000e-08
Number of eigenvalues below threshold      ... 0
Time for construction of square roots      ...    0.006 sec
Total time needed                          ...    0.025 sec

---------------------
INITIAL GUESS: MOREAD
---------------------
Guess MOs are being read from file: previous.gbw
Input Geometry matches current geometry (good)
Input basis set matches current basis set (good)
MOs were renormalized
MOs were reorthogonalized (Schmidt)
                      ------------------
                      INITIAL GUESS DONE (   0.1 sec)
                      ------------------
-------------------
DFT GRID GENERATION
-------------------

General Integration Accuracy     IntAcc      ...  5.010
Radial Grid Type                 RadialGrid  ... Gauss-Chebyshev
Angular Grid (max. acc.)         AngularGrid ... Lebedev-434
Angular grid pruning method      GridPruning ... 3 (G Style)
Weight generation scheme         WeightScheme... Becke
Basis function cutoff            BFCut       ...    1.0000e-11
Integration weight cutoff        WCut        ...    1.0000e-14
Grids for H and He will be reduced by one unit

# of grid points (after initial pruning)     ... 115882 (   0.0 sec)
# of grid points (after weights+screening)   ... 108795 (   0.2 sec)
nearest neighbour list constructed           ...    0.0 sec
Grid point re-assignment to atoms done       ...    0.0 sec
Grid point division into batches done        ...    1.0 sec
Reduced shell lists constructed in    3.4 sec

Total number of grid points                  ...   108795
Total number of batches                      ...     1708
Average number of points per batch           ...       63
Average number of grid points per atom       ...     9066
Average number of shells per batch           ...    54.27 (53.73%)
Average number of basis functions per batch  ...   142.98 (55.21%)
Average number of large shells per batch     ...    41.03 (75.61%)
Average number of large basis fcns per batch ...   105.44 (73.74%)
Maximum spatial batch extension              ...  32.04, 33.20, 32.66 au
Average spatial batch extension              ...   2.41,  2.40,  2.41 au

Time for grid setup =    3.665 sec

--------------------
COSX GRID GENERATION
--------------------

General Integration Accuracy     IntAcc      ...  3.340
Radial Grid Type                 RadialGrid  ... Gauss-Chebyshev
Angular Grid (max. acc.)         AngularGrid ... Lebedev-50
Angular grid pruning method      GridPruning ... 3 (G Style)
Weight generation scheme         WeightScheme... Becke
Basis function cutoff            BFCut       ...    1.0000e-11
Integration weight cutoff        WCut        ...    1.0000e-14
Grids for H and He will be reduced by one unit

# of grid points (after initial pruning)     ...   6578 (   0.0 sec)
# of grid points (after weights+screening)   ...   6171 (   0.0 sec)
nearest neighbour list constructed           ...    0.0 sec
Grid point re-assignment to atoms done       ...    0.0 sec
Grid point division into batches done        ...    0.0 sec
Reduced shell lists constructed in    0.2 sec

Total number of grid points                  ...     6171
Total number of batches                      ...      102
Average number of points per batch           ...       60
Average number of grid points per atom       ...      514
Average number of shells per batch           ...    66.07 (65.41%)
Average number of basis functions per batch  ...   177.27 (68.44%)
Average number of large shells per batch     ...    51.35 (77.72%)
Average number of large basis fcns per batch ...   134.61 (75.94%)
Maximum spatial batch extension              ...  32.21, 26.59, 31.04 au
Average spatial batch extension              ...   6.20,  6.24,  6.40 au

Overlap Fitting                  UseSFitting ... on
Constructing numerical overlap ... done (      0.1 sec)
Inverting numerical overlap    ... done (      0.0 sec)
Obtaining analytic overlap     ... done (      0.0 sec)
Final contraction and storage  ... done (      0.0 sec)


General Integration Accuracy     IntAcc      ...  3.670
Radial Grid Type                 RadialGrid  ... Gauss-Chebyshev
Angular Grid (max. acc.)         AngularGrid ... Lebedev-50
Angular grid pruning method      GridPruning ... 3 (G Style)
Weight generation scheme         WeightScheme... Becke
Basis function cutoff            BFCut       ...    1.0000e-11
Integration weight cutoff        WCut        ...    1.0000e-14
Grids for H and He will be reduced by one unit

# of grid points (after initial pruning)     ...   8124 (   0.0 sec)
# of grid points (after weights+screening)   ...   7601 (   0.0 sec)
nearest neighbour list constructed           ...    0.0 sec
Grid point re-assignment to atoms done       ...    0.0 sec
Grid point division into batches done        ...    0.0 sec
Reduced shell lists constructed in    0.2 sec

Total number of grid points                  ...     7601
Total number of batches                      ...      123
Average number of points per batch           ...       61
Average number of grid points per atom       ...      633
Average number of shells per batch           ...    65.24 (64.60%)
Average number of basis functions per batch  ...   174.84 (67.51%)
Average number of large shells per batch     ...    50.79 (77.85%)
Average number of large basis fcns per batch ...   132.39 (75.72%)
Maximum spatial batch extension              ...  33.65, 26.94, 32.08 au
Average spatial batch extension              ...   5.70,  5.60,  5.83 au

Overlap Fitting                  UseSFitting ... on
Constructing numerical overlap ... done (      0.1 sec)
Inverting numerical overlap    ... done (      0.0 sec)
Obtaining analytic overlap     ... done (      0.0 sec)
Final contraction and storage  ... done (      0.0 sec)


General Integration Accuracy     IntAcc      ...  4.010
Radial Grid Type                 RadialGrid  ... Gauss-Chebyshev
Angular Grid (max. acc.)         AngularGrid ... Lebedev-110
Angular grid pruning method      GridPruning ... 3 (G Style)
Weight generation scheme         WeightScheme... Becke
Basis function cutoff            BFCut       ...    1.0000e-11
Integration weight cutoff        WCut        ...    1.0000e-14
Grids for H and He will be reduced by one unit

# of grid points (after initial pruning)     ...  15170 (   0.0 sec)
# of grid points (after weights+screening)   ...  14357 (   0.0 sec)
nearest neighbour list constructed           ...    0.0 sec
Grid point re-assignment to atoms done       ...    0.0 sec
Grid point division into batches done        ...    0.0 sec
Reduced shell lists constructed in    0.4 sec

Total number of grid points                  ...    14357
Total number of batches                      ...      229
Average number of points per batch           ...       62
Average number of grid points per atom       ...     1196
Average number of shells per batch           ...    61.74 (61.13%)
Average number of basis functions per batch  ...   165.00 (63.71%)
Average number of large shells per batch     ...    47.39 (76.75%)
Average number of large basis fcns per batch ...   123.23 (74.68%)
Maximum spatial batch extension              ...  30.75, 30.09, 34.29 au
Average spatial batch extension              ...   4.94,  4.94,  5.07 au

Overlap Fitting                  UseSFitting ... on
Constructing numerical overlap ... done (      0.2 sec)
Inverting numerical overlap    ... done (      0.0 sec)
Obtaining analytic overlap     ... done (      0.0 sec)
Final contraction and storage  ... done (      0.0 sec)

Time for X-Grid setup             =    1.392 sec
--------------
SCF ITERATIONS
--------------
ITER       Energy         Delta-E        Max-DP      RMS-DP      [F,P]     Damp
               ***  Starting incremental Fock matrix formation  ***
  0  -1669.0324478546   0.000000000000 0.03726460  0.00024982  0.0681505 0.8500
  1  -1669.0352177173  -0.002769862632 0.03396026  0.00024170  0.0580106 0.8500
                               ***Turning on DIIS***
  2  -1669.0376635116  -0.002445794395 0.02910910  0.00021053  0.0493712 0.8500
  3  -1669.0397631903  -0.002099678660 0.02471965  0.00017810  0.0420116 0.8500
  4  -1669.0415675275  -0.001804337185 0.02130933  0.00015274  0.0357183 0.8500
  5  -1669.0431143559  -0.001546828384 0.01859998  0.00013337  0.0303474 0.8500
  6  -1669.0444455897  -0.001331233860 0.10778994  0.00077566  0.0257836 0.0000
                      *** Initiating the SOSCF procedure ***
                           *** Shutting down DIIS ***
                      *** Re-Reading the Fockian *** 
                      *** Removing any level shift *** 
ITER      Energy       Delta-E        Grad      Rot      Max-DP    RMS-DP
  7  -1669.05244968  -0.0080040934  0.000628  0.000628  0.002944  0.000030
               *** Restarting incremental Fock matrix formation ***
  8  -1669.05247865  -0.0000289619  0.000251  0.000801  0.001123  0.000016
  9  -1669.05248112  -0.0000024709  0.000088  0.000456  0.000974  0.000009
 10  -1669.05248141  -0.0000002897  0.000048  0.000064  0.000235  0.000002
 11  -1669.05248148  -0.0000000720  0.000008  0.000018  0.000034  0.000001
 12  -1669.05248148  -0.0000000057  0.000004  0.000009  0.000024  0.000000
                  ***Gradient check signals convergence***
              ***Rediagonalizing the Fockian in SOSCF/NRSCF***

               *****************************************************
               *                     SUCCESS                       *
               *           SCF CONVERGED AFTER  13 CYCLES          *
               *****************************************************

Old exchange energy                            =    -59.185871359 Eh
New exchange energy                            =    -59.189439047 Eh
Exchange energy change after final integration =     -0.003567688 Eh
Total energy after final integration           =  -1669.056049158 Eh
Final COS-X integration done in                =    19.111 sec

----------------
TOTAL SCF ENERGY
----------------

Total Energy       :        -1669.05604916 Eh          -45417.32407 eV

Components:
Nuclear Repulsion  :          590.11552838 Eh           16057.85989 eV
Electronic Energy  :        -2259.17157754 Eh          -61475.18396 eV

One Electron Energy:        -3551.12945605 Eh          -96631.14513 eV
Two Electron Energy:         1291.95787852 Eh           35155.96117 eV

Virial components:
Potential Energy   :        -3206.58774398 Eh          -87255.68851 eV
Kinetic Energy     :         1537.53169482 Eh           41838.36444 eV
Virial Ratio       :            2.08554253


DFT components:
N(Alpha)           :       45.999987214492 electrons
N(Beta)            :       45.999987214492 electrons
N(Total)           :       91.999974428985 electrons
E(X)               :      -52.564305445320 Eh       
E(C)               :       -2.604925793382 Eh       
E(XC)              :      -55.169231238701 Eh       

---------------
SCF CONVERGENCE
---------------

  Last Energy change         ...    1.2531e-08  Tolerance :   1.0000e-08
  Last MAX-Density change    ...    1.2879e-14  Tolerance :   1.0000e-07
  Last RMS-Density change    ...    1.9120e-16  Tolerance :   5.0000e-09
  Last Orbital Gradient      ...    3.9450e-07  Tolerance :   1.0000e-05
  Last Orbital Rotation      ...    1.3176e-06  Tolerance :   1.0000e-05

             **** THE GBW FILE WAS UPDATED (PbMACl3_mp2_1.orca.gbw) ****
             **** DENSITY FILE WAS UPDATED (PbMACl3_mp2_1.orca.scfp.tmp) ****
             **** ENERGY FILE WAS UPDATED (PbMACl3_mp2_1.orca.en.tmp) ****
----------------
ORBITAL ENERGIES
----------------

  NO   OCC          E(Eh)            E(eV) 
   0   2.0000    -102.858678     -2798.9269 
   1   2.0000    -102.852300     -2798.7534 
   2   2.0000    -102.850246     -2798.6975 
   3   2.0000     -14.958346      -407.0373 
   4   2.0000     -10.707187      -291.3574 
   5   2.0000      -9.865913      -268.4651 
   6   2.0000      -9.859156      -268.2813 
   7   2.0000      -9.856950      -268.2213 
   8   2.0000      -7.503097      -204.1696 
   9   2.0000      -7.501325      -204.1214 
  10   2.0000      -7.500926      -204.1106 
  11   2.0000      -7.496278      -203.9841 
  12   2.0000      -7.494711      -203.9414 
  13   2.0000      -7.494194      -203.9274 
  14   2.0000      -7.494108      -203.9250 
  15   2.0000      -7.492409      -203.8788 
  16   2.0000      -7.492039      -203.8688 
  17   2.0000      -5.807339      -158.0257 
  18   2.0000      -3.578105       -97.3652 
  19   2.0000      -3.577868       -97.3587 
  20   2.0000      -3.577068       -97.3370 
  21   2.0000      -1.135149       -30.8890 
  22   2.0000      -0.975478       -26.5441 
  23   2.0000      -0.973365       -26.4866 
  24   2.0000      -0.965961       -26.2851 
  25   2.0000      -0.965627       -26.2760 
  26   2.0000      -0.965134       -26.2626 
  27   2.0000      -0.887334       -24.1456 
  28   2.0000      -0.865761       -23.5586 
  29   2.0000      -0.861220       -23.4350 
  30   2.0000      -0.854442       -23.2506 
  31   2.0000      -0.662938       -18.0394 
  32   2.0000      -0.661840       -18.0096 
  33   2.0000      -0.597015       -16.2456 
  34   2.0000      -0.556432       -15.1413 
  35   2.0000      -0.518054       -14.0970 
  36   2.0000      -0.517502       -14.0819 
  37   2.0000      -0.382890       -10.4190 
  38   2.0000      -0.379248       -10.3199 
  39   2.0000      -0.371536       -10.1100 
  40   2.0000      -0.353487        -9.6189 
  41   2.0000      -0.353315        -9.6142 
  42   2.0000      -0.340898        -9.2763 
  43   2.0000      -0.340550        -9.2668 
  44   2.0000      -0.334526        -9.1029 
  45   2.0000      -0.312244        -8.4966 
  46   0.0000       0.001572         0.0428 
  47   0.0000       0.003023         0.0823 
  48   0.0000       0.008498         0.2312 
  49   0.0000       0.040559         1.1037 
  50   0.0000       0.090516         2.4631 
  51   0.0000       0.113061         3.0765 
  52   0.0000       0.114273         3.1095 
  53   0.0000       0.122790         3.3413 
  54   0.0000       0.139645         3.7999 
  55   0.0000       0.142075         3.8661 
  56   0.0000       0.146366         3.9828 
  57   0.0000       0.149686         4.0732 
  58   0.0000       0.180127         4.9015 
  59   0.0000       0.236017         6.4223 
  60   0.0000       0.247288         6.7290 
  61   0.0000       0.250984         6.8296 
  62   0.0000       0.255483         6.9521 
  63   0.0000       0.256635         6.9834 
  64   0.0000       0.273366         7.4387 
  65   0.0000       0.275648         7.5008 
  66   0.0000       0.279701         7.6111 
  67   0.0000       0.326462         8.8835 
  68   0.0000       0.330122         8.9831 
  69   0.0000       0.342335         9.3154 
  70   0.0000       0.393229        10.7003 
  71   0.0000       0.408007        11.1024 
  72   0.0000       0.415032        11.2936 
  73   0.0000       0.419687        11.4203 
  74   0.0000       0.434685        11.8284 
  75   0.0000       0.443527        12.0690 
  76   0.0000       0.446603        12.1527 
  77   0.0000       0.467424        12.7193 
  78   0.0000       0.470118        12.7925 
  79   0.0000       0.472327        12.8527 
  80   0.0000       0.486368        13.2347 
  81   0.0000       0.490243        13.3402 
  82   0.0000       0.505350        13.7513 
  83   0.0000       0.519919        14.1477 
  84   0.0000       0.522657        14.2222 
  85   0.0000       0.523245        14.2382 
  86   0.0000       0.542706        14.7678 
  87   0.0000       0.559369        15.2212 
  88   0.0000       0.565834        15.3971 
  89   0.0000       0.571207        15.5433 
  90   0.0000       0.580312        15.7911 
  91   0.0000       0.591359        16.0917 
  92   0.0000       0.594077        16.1657 
  93   0.0000       0.596384        16.2284 
  94   0.0000       0.597907        16.2699 
  95   0.0000       0.603189        16.4136 
  96   0.0000       0.651425        17.7262 
  97   0.0000       0.663393        18.0518 
  98   0.0000       0.669742        18.2246 
  99   0.0000       0.707656        19.2563 
 100   0.0000       0.719042        19.5661 
 101   0.0000       0.725553        19.7433 
 102   0.0000       0.749548        20.3962 
 103   0.0000       0.763662        20.7803 
 104   0.0000       0.769670        20.9438 
 105   0.0000       0.820834        22.3360 
 106   0.0000       0.847244        23.0547 
 107   0.0000       0.852543        23.1989 
 108   0.0000       0.854936        23.2640 
 109   0.0000       0.869257        23.6537 
 110   0.0000       0.877714        23.8838 
 111   0.0000       0.904576        24.6148 
 112   0.0000       0.907930        24.7060 
 113   0.0000       0.922005        25.0890 
 114   0.0000       0.929482        25.2925 
 115   0.0000       0.932038        25.3621 
 116   0.0000       0.978694        26.6316 
 117   0.0000       1.057109        28.7654 
 118   0.0000       1.059813        28.8390 
 119   0.0000       1.063641        28.9431 
 120   0.0000       1.095444        29.8085 
 121   0.0000       1.100556        29.9477 
 122   0.0000       1.125513        30.6268 
 123   0.0000       1.207134        32.8478 
 124   0.0000       1.208490        32.8847 
 125   0.0000       1.274784        34.6886 
 126   0.0000       1.289540        35.0902 
 127   0.0000       1.309694        35.6386 
 128   0.0000       1.358278        36.9606 
 129   0.0000       1.383660        37.6513 
 130   0.0000       1.498733        40.7826 
 131   0.0000       1.566960        42.6391 
 132   0.0000       1.593837        43.3705 
 133   0.0000       1.595879        43.4261 
 134   0.0000       1.603241        43.6264 
 135   0.0000       1.622027        44.1376 
 136   0.0000       1.739764        47.3414 
 137   0.0000       1.783523        48.5321 
 138   0.0000       1.786774        48.6206 
 139   0.0000       1.867640        50.8211 
 140   0.0000       1.895492        51.5790 
 141   0.0000       1.896638        51.6101 
 142   0.0000       1.918314        52.2000 
 143   0.0000       1.923641        52.3449 
 144   0.0000       1.928987        52.4904 
 145   0.0000       1.956191        53.2307 
 146   0.0000       1.971657        53.6515 
 147   0.0000       1.976967        53.7960 
 148   0.0000       1.982915        53.9579 
 149   0.0000       1.993317        54.2409 
 150   0.0000       2.000841        54.4457 
 151   0.0000       2.009439        54.6796 
 152   0.0000       2.012475        54.7622 
 153   0.0000       2.030823        55.2615 
 154   0.0000       2.068823        56.2955 
 155   0.0000       2.073280        56.4168 
 156   0.0000       2.085318        56.7444 
 157   0.0000       2.125160        57.8285 
 158   0.0000       2.134166        58.0736 
 159   0.0000       2.139029        58.2059 
 160   0.0000       2.148443        58.4621 
 161   0.0000       2.164031        58.8863 
 162   0.0000       2.167810        58.9891 
 163   0.0000       2.172658        59.1210 
 164   0.0000       2.188329        59.5475 
 165   0.0000       2.191189        59.6253 
 166   0.0000       2.199278        59.8454 
 167   0.0000       2.230787        60.7028 
 168   0.0000       2.234392        60.8009 
 169   0.0000       2.239839        60.9491 
 170   0.0000       2.245751        61.1100 
 171   0.0000       2.247012        61.1443 
 172   0.0000       2.252593        61.2962 
 173   0.0000       2.255061        61.3633 
 174   0.0000       2.257163        61.4205 
 175   0.0000       2.260126        61.5012 
 176   0.0000       2.267219        61.6942 
 177   0.0000       2.294866        62.4465 
 178   0.0000       2.323129        63.2156 
 179   0.0000       2.324920        63.2643 
 180   0.0000       2.342326        63.7379 
 181   0.0000       2.375206        64.6326 
 182   0.0000       2.378019        64.7092 
 183   0.0000       2.380328        64.7720 
 184   0.0000       2.384356        64.8816 
 185   0.0000       2.385384        64.9096 
 186   0.0000       2.398527        65.2672 
 187   0.0000       2.425706        66.0068 
 188   0.0000       2.431282        66.1585 
 189   0.0000       2.433881        66.2293 
 190   0.0000       2.450069        66.6698 
 191   0.0000       2.464681        67.0674 
 192   0.0000       2.466554        67.1184 
 193   0.0000       2.481754        67.5320 
 194   0.0000       2.491960        67.8097 
 195   0.0000       2.532207        68.9049 
 196   0.0000       2.539215        69.0955 
 197   0.0000       2.556101        69.5550 
 198   0.0000       2.565851        69.8204 
 199   0.0000       2.590517        70.4915 
 200   0.0000       2.604486        70.8717 
 201   0.0000       2.609474        71.0074 
 202   0.0000       2.646689        72.0201 
 203   0.0000       2.659412        72.3663 
 204   0.0000       2.735087        74.4255 
 205   0.0000       2.775335        75.5207 
 206   0.0000       2.807977        76.4090 
 207   0.0000       2.811732        76.5111 
 208   0.0000       2.834027        77.1178 
 209   0.0000       2.843193        77.3672 
 210   0.0000       2.858694        77.7890 
 211   0.0000       3.024073        82.2892 
 212   0.0000       3.133027        85.2540 
 213   0.0000       3.136321        85.3436 
 214   0.0000       3.219550        87.6084 
 215   0.0000       3.230327        87.9017 
 216   0.0000       3.240917        88.1898 
 217   0.0000       3.308427        90.0269 
 218   0.0000       3.398143        92.4682 
 219   0.0000       3.559966        96.8716 
 220   0.0000       3.584816        97.5478 
 221   0.0000       3.587943        97.6329 
 222   0.0000       3.777226       102.7836 
 223   0.0000       3.782916       102.9384 
 224   0.0000       3.928670       106.9045 
 225   0.0000       4.196989       114.2059 
 226   0.0000       4.206322       114.4599 
 227   0.0000       4.410316       120.0108 
 228   0.0000       4.450838       121.1135 
 229   0.0000       4.851650       132.0201 
 230   0.0000       4.854046       132.0853 
 231   0.0000       4.958728       134.9338 
 232   0.0000       4.963516       135.0641 
 233   0.0000       5.090019       138.5065 
 234   0.0000       5.116163       139.2179 
 235   0.0000       5.119074       139.2971 
 236   0.0000       5.318432       144.7219 
 237   0.0000       5.523134       150.2921 
 238   0.0000       5.529995       150.4788 
 239   0.0000       5.855924       159.3478 
 240   0.0000      11.047567       300.6196 
 241   0.0000      11.051126       300.7164 
 242   0.0000      11.065397       301.1048 
 243   0.0000      11.097176       301.9695 
 244   0.0000      11.123621       302.6891 
 245   0.0000      11.126035       302.7548 
 246   0.0000      11.139258       303.1146 
 247   0.0000      11.166833       303.8650 
 248   0.0000      11.176070       304.1163 
 249   0.0000      22.662109       616.6673 
 250   0.0000      25.184306       685.2998 
 251   0.0000      25.232261       686.6047 
 252   0.0000      25.450077       692.5318 
 253   0.0000      32.366763       880.7444 
 254   0.0000      35.502792       966.0801 
 255   0.0000      35.761152       973.1104 
 256   0.0000      35.769951       973.3499 
 257   0.0000      35.861317       975.8360 
 258   0.0000     123.591935      3363.1075 

                    ********************************
                    * MULLIKEN POPULATION ANALYSIS *
                    ********************************

-----------------------
MULLIKEN ATOMIC CHARGES
-----------------------
   0 C :   -0.252854
   1 N :   -0.302690
   2 H :    0.157540
   3 H :    0.158363
   4 H :    0.156073
   5 H :    0.289910
   6 H :    0.289652
   7 H :    0.286437
   8 Pb:    0.877794
   9 Cl:   -0.544445
  10 Cl:   -0.561002
  11 Cl:   -0.554776
Sum of atomic charges:   -0.0000000

--------------------------------
MULLIKEN REDUCED ORBITAL CHARGES
--------------------------------
  0 C s       :     3.273540  s :     3.273540
      pz      :     0.975095  p :     2.904045
      px      :     0.992208
      py      :     0.936742
      dz2     :     0.006913  d :     0.069274
      dxz     :     0.018297
      dyz     :     0.018111
      dx2y2   :     0.007535
      dxy     :     0.018418
      f0      :     0.000348  f :     0.005995
      f+1     :     0.000491
      f-1     :     0.000715
      f+2     :     0.000727
      f-2     :     0.002630
      f+3     :     0.000500
      f-3     :     0.000584
  1 N s       :     3.417034  s :     3.417034
      pz      :     1.280196  p :     3.836710
      px      :     1.284952
      py      :     1.271562
      dz2     :     0.004980  d :     0.046771
      dxz     :     0.012522
      dyz     :     0.011759
      dx2y2   :     0.005510
      dxy     :     0.011999
      f0      :     0.000119  f :     0.002176
      f+1     :     0.000164
      f-1     :     0.000202
      f+2     :     0.000211
      f-2     :     0.001146
      f+3     :     0.000156
      f-3     :     0.000178
  2 H s       :     0.820726  s :     0.820726
      pz      :     0.008312  p :     0.021734
      px      :     0.007750
      py      :     0.005672
  3 H s       :     0.819905  s :     0.819905
      pz      :     0.006935  p :     0.021732
      px      :     0.007342
      py      :     0.007455
  4 H s       :     0.822224  s :     0.822224
      pz      :     0.006751  p :     0.021704
      px      :     0.007390
      py      :     0.007563
  5 H s       :     0.668432  s :     0.668432
      pz      :     0.009794  p :     0.041658
      px      :     0.015089
      py      :     0.016775
  6 H s       :     0.669855  s :     0.669855
      pz      :     0.014120  p :     0.040493
      px      :     0.009998
      py      :     0.016375
  7 H s       :     0.673981  s :     0.673981
      pz      :     0.016067  p :     0.039582
      px      :     0.015813
      py      :     0.007702
  8 Pbs       :     3.913941  s :     3.913941
      pz      :     2.323996  p :     7.023497
      px      :     2.339564
      py      :     2.359937
      dz2     :     2.028006  d :    10.130838
      dxz     :     2.025810
      dyz     :     2.024588
      dx2y2   :     2.026573
      dxy     :     2.025861
      f0      :     0.012253  f :     0.053930
      f+1     :     0.007979
      f-1     :     0.007772
      f+2     :     0.005491
      f-2     :     0.000519
      f+3     :     0.009837
      f-3     :     0.010079
  9 Cls       :     5.956078  s :     5.956078
      pz      :     3.932959  p :    11.570996
      px      :     3.717443
      py      :     3.920594
      dz2     :     0.002686  d :     0.016640
      dxz     :     0.002441
      dyz     :     0.001412
      dx2y2   :     0.007593
      dxy     :     0.002508
      f0      :     0.000065  f :     0.000731
      f+1     :     0.000167
      f-1     :     0.000030
      f+2     :     0.000098
      f-2     :     0.000012
      f+3     :     0.000251
      f-3     :     0.000109
 10 Cls       :     5.958170  s :     5.958170
      pz      :     3.934618  p :    11.587894
      px      :     3.925804
      py      :     3.727472
      dz2     :     0.002355  d :     0.014352
      dxz     :     0.001493
      dyz     :     0.002045
      dx2y2   :     0.006255
      dxy     :     0.002203
      f0      :     0.000054  f :     0.000586
      f+1     :     0.000028
      f-1     :     0.000124
      f+2     :     0.000078
      f-2     :     0.000017
      f+3     :     0.000099
      f-3     :     0.000186
 11 Cls       :     5.957515  s :     5.957515
      pz      :     3.730550  p :    11.581616
      px      :     3.934700
      py      :     3.916366
      dz2     :     0.008786  d :     0.015041
      dxz     :     0.002122
      dyz     :     0.002254
      dx2y2   :     0.000306
      dxy     :     0.001573
      f0      :     0.000331  f :     0.000604
      f+1     :     0.000090
      f-1     :     0.000094
      f+2     :     0.000008
      f-2     :     0.000015
      f+3     :     0.000045
      f-3     :     0.000020


                     *******************************
                     * LOEWDIN POPULATION ANALYSIS *
                     *******************************

----------------------
LOEWDIN ATOMIC CHARGES
----------------------
   0 C :   -0.275947
   1 N :    0.085673
   2 H :    0.124944
   3 H :    0.125163
   4 H :    0.123827
   5 H :    0.162186
   6 H :    0.166121
   7 H :    0.169566
   8 Pb:    0.089327
   9 Cl:   -0.227910
  10 Cl:   -0.276870
  11 Cl:   -0.266079

-------------------------------
LOEWDIN REDUCED ORBITAL CHARGES
-------------------------------
  0 C s       :     2.853959  s :     2.853959
      pz      :     1.032645  p :     3.082658
      px      :     1.042971
      py      :     1.007043
      dz2     :     0.029284  d :     0.302415
      dxz     :     0.078615
      dyz     :     0.081487
      dx2y2   :     0.031466
      dxy     :     0.081563
      f0      :     0.005295  f :     0.036914
      f+1     :     0.003959
      f-1     :     0.005774
      f+2     :     0.004293
      f-2     :     0.006970
      f+3     :     0.004894
      f-3     :     0.005729
  1 N s       :     3.000315  s :     3.000315
      pz      :     1.249258  p :     3.749158
      px      :     1.251156
      py      :     1.248744
      dz2     :     0.016680  d :     0.155527
      dxz     :     0.040846
      dyz     :     0.039592
      dx2y2   :     0.018434
      dxy     :     0.039975
      f0      :     0.001438  f :     0.009328
      f+1     :     0.001100
      f-1     :     0.001409
      f+2     :     0.001009
      f-2     :     0.001635
      f+3     :     0.001210
      f-3     :     0.001526
  2 H s       :     0.812875  s :     0.812875
      pz      :     0.022877  p :     0.062182
      px      :     0.021601
      py      :     0.017703
  3 H s       :     0.812643  s :     0.812643
      pz      :     0.019428  p :     0.062194
      px      :     0.022288
      py      :     0.020478
  4 H s       :     0.814039  s :     0.814039
      pz      :     0.020708  p :     0.062134
      px      :     0.020695
      py      :     0.020731
  5 H s       :     0.712487  s :     0.712487
      pz      :     0.032709  p :     0.125327
      px      :     0.044228
      py      :     0.048390
  6 H s       :     0.713028  s :     0.713028
      pz      :     0.040656  p :     0.120851
      px      :     0.033433
      py      :     0.046762
  7 H s       :     0.712530  s :     0.712530
      pz      :     0.046533  p :     0.117904
      px      :     0.045435
      py      :     0.025937
  8 Pbs       :     3.770658  s :     3.770658
      pz      :     2.460497  p :     7.450442
      px      :     2.490356
      py      :     2.499589
      dz2     :     2.157697  d :    10.536508
      dxz     :     2.075264
      dyz     :     2.071531
      dx2y2   :     2.154486
      dxy     :     2.077530
      f0      :     0.037334  f :     0.153065
      f+1     :     0.022365
      f-1     :     0.020582
      f+2     :     0.013229
      f-2     :     0.001218
      f+3     :     0.030571
      f-3     :     0.027766
  9 Cls       :     5.760947  s :     5.760947
      pz      :     3.881204  p :    11.436495
      px      :     3.689423
      py      :     3.865868
      dz2     :     0.005405  d :     0.028944
      dxz     :     0.002242
      dyz     :     0.002482
      dx2y2   :     0.015974
      dxy     :     0.002842
      f0      :     0.000066  f :     0.001523
      f+1     :     0.000417
      f-1     :     0.000055
      f+2     :     0.000161
      f-2     :     0.000012
      f+3     :     0.000643
      f-3     :     0.000170
 10 Cls       :     5.784045  s :     5.784045
      pz      :     3.888360  p :    11.468001
      px      :     3.879509
      py      :     3.700132
      dz2     :     0.004408  d :     0.023675
      dxz     :     0.002166
      dyz     :     0.002059
      dx2y2   :     0.012735
      dxy     :     0.002306
      f0      :     0.000058  f :     0.001150
      f+1     :     0.000050
      f-1     :     0.000293
      f+2     :     0.000126
      f-2     :     0.000026
      f+3     :     0.000129
      f-3     :     0.000468
 11 Cls       :     5.779771  s :     5.779771
      pz      :     3.700451  p :    11.460016
      px      :     3.889455
      py      :     3.870109
      dz2     :     0.017310  d :     0.025067
      dxz     :     0.001968
      dyz     :     0.002549
      dx2y2   :     0.000416
      dxy     :     0.002823
      f0      :     0.000778  f :     0.001226
      f+1     :     0.000114
      f-1     :     0.000166
      f+2     :     0.000010
      f-2     :     0.000023
      f+3     :     0.000099
      f-3     :     0.000035


                      *****************************
                      * MAYER POPULATION ANALYSIS *
                      *****************************

  NA   - Mulliken gross atomic population
  ZA   - Total nuclear charge
  QA   - Mulliken gross atomic charge
  VA   - Mayer's total valence
  BVA  - Mayer's bonded valence
  FA   - Mayer's free valence

  ATOM       NA         ZA         QA         VA         BVA        FA
  0 C      6.2529     6.0000    -0.2529     3.8395     3.8395    -0.0000
  1 N      7.3027     7.0000    -0.3027     3.3400     3.3400     0.0000
  2 H      0.8425     1.0000     0.1575     0.9623     0.9623    -0.0000
  3 H      0.8416     1.0000     0.1584     0.9618     0.9618    -0.0000
  4 H      0.8439     1.0000     0.1561     0.9613     0.9613     0.0000
  5 H      0.7101     1.0000     0.2899     0.9758     0.9758     0.0000
  6 H      0.7103     1.0000     0.2897     0.9672     0.9672     0.0000
  7 H      0.7136     1.0000     0.2864     0.9720     0.9720    -0.0000
  8 Pb    21.1222    22.0000     0.8778     1.8870     1.8870    -0.0000
  9 Cl    17.5444    17.0000    -0.5444     0.7831     0.7831     0.0000
 10 Cl    17.5610    17.0000    -0.5610     0.7583     0.7583    -0.0000
 11 Cl    17.5548    17.0000    -0.5548     0.7703     0.7703    -0.0000

  Mayer bond orders larger than 0.1
B(  0-C ,  1-N ) :   0.9088 B(  0-C ,  2-H ) :   0.9702 B(  0-C ,  3-H ) :   0.9697 
B(  0-C ,  4-H ) :   0.9700 B(  1-N ,  5-H ) :   0.8163 B(  1-N ,  6-H ) :   0.8317 
B(  1-N ,  7-H ) :   0.8356 B(  5-H , 11-Cl) :   0.1643 B(  6-H ,  9-Cl) :   0.1345 
B(  7-H , 10-Cl) :   0.1348 B(  8-Pb,  9-Cl) :   0.6467 B(  8-Pb, 10-Cl) :   0.6227 
B(  8-Pb, 11-Cl) :   0.6114 

-------
TIMINGS
-------

Total SCF time: 0 days 0 hours 3 min 7 sec 

Total time                  ....     187.406 sec
Sum of individual times     ....     167.400 sec  ( 89.3%)

Fock matrix formation       ....     161.749 sec  ( 86.3%)
  Coulomb formation         ....     125.714 sec  ( 77.7% of F)
  Split-RI-J                ....      10.852 sec  (  6.7% of F)
  Chain of spheres X        ....     133.935 sec  ( 82.8% of F)
  COS-X 1 center corr.      ....       0.000 sec  (  0.0% of F)
  XC integration            ....      36.106 sec  ( 22.3% of F)
    Basis function eval.    ....      17.465 sec  ( 48.4% of XC)
    Density eval.           ....       7.559 sec  ( 20.9% of XC)
    XC-Functional eval.     ....       1.987 sec  (  5.5% of XC)
    XC-Potential eval.      ....       8.403 sec  ( 23.3% of XC)
Diagonalization             ....       0.243 sec  (  0.1%)
Density matrix formation    ....       0.024 sec  (  0.0%)
Population analysis         ....       0.069 sec  (  0.0%)
Initial guess               ....       0.115 sec  (  0.1%)
Orbital Transformation      ....       0.000 sec  (  0.0%)
Orbital Orthonormalization  ....       0.112 sec  (  0.1%)
DIIS solution               ....       0.055 sec  (  0.0%)
SOSCF solution              ....       0.087 sec  (  0.0%)
Grid generation             ....       5.057 sec  (  2.7%)

------------------------------------------------------------------------------
                              ORCA MP2 CALCULATION
------------------------------------------------------------------------------


----------------------
RI-MP2 ENERGY+GRADIENT
----------------------
Dimension of the basis                    ...  259
Memory devoted to MP2                     ... 1000 MB   
Data format for buffers                   ... DOUBLE
Compression type for matrix containers    ... UNCOMPRESSED
Overall scaling of the MP2 energy         ...   2.700e-01 Eh
Calculating two index integrals           ... done (    0.013 sec)
Cholesky decomposition of the V-matrix    ... done
Cholesky decomposition of V**-1           ... done (    0.028 sec)

-----------------
RI-TRANSFORMATION (AUX index driven)
-----------------

Dimension of the orbital-basis         ... 259
Dimension of the aux-basis             ... 493
Transformation of internal MOs         ...    0-  45
Transformation of internal/external MOs...    0-  45 to   46- 258
Number Format for Storage              ... Double (8 Byte)
Integral mode                          ... Direct

First Phase: integral generation and transformation of MO indices
  Aux angular momentum 0               ... done (    0.456 sec)
  Aux angular momentum 1               ... done (    0.375 sec)
  Aux angular momentum 2               ... done (    0.437 sec)
  Aux angular momentum 3               ... done (    0.248 sec)
  Aux angular momentum 4               ... done (    0.227 sec)
Closing buffer VIJ ( 0.00 GB; CompressionRatio= 1.95)
Closing buffer VIA ( 0.04 GB; CompressionRatio= 1.00)
  Phase 1 completed in     1.847 sec
Second Phase: sorting and transformation of aux index

IJ-Transformation
Memory available                       ... 990 MB 
Max. # MO pairs treated in a batch     ... 46    
# of internal orbitals                 ... 46
# batches for internal orbitals        ... 1
Closing buffer IJV ( 0.00 GB; CompressionRatio= 1.00)
(ij|v) transformation done in     0.100 sec

IA-Transformation
Memory available                       ... 990 MB 
Max. # MO pairs treated in a batch     ... 46    
# of internal orbitals                 ... 46
# batches for internal orbitals        ... 1
Closing buffer IAV ( 0.04 GB; CompressionRatio= 1.00)
(ia|v) transformation done in     0.358 sec

  Phase 2 completed in     0.484 sec
RI-Integral transformation completed in     2.331 sec
Opening buffers                              ... done

Starting loop over batches of integrals:

Operator 0  - window                       ... (  0- 45)x( 46-258)
Operator 0  - Memory available             ...  1000 MB
Operator 0  - Memory needed per MO         ...   1.6 MB
Operator 0  - Number of orbitals per batch ... 46
Operator 0  - Number of batches            ... 1

OPERATOR  0   PASS   0:  MOs     0 ...   45
  Reading integrals       ... ok
  Internal MO   2
  Internal MO   5
  Internal MO   8
  Internal MO  11
  Internal MO  14
  Internal MO  17
  Internal MO  20
  Internal MO  23
  Internal MO  26
  Internal MO  29
  Internal MO  32
  Internal MO  35
  Internal MO  38
  Internal MO  41
  Internal MO  44
Closing buffer GIPV ( 0.04 GB; CompressionRatio= 1.00)
Time spent in pair loops =    44.614 sec

-----------------------------------------------
 RI-MP2 CORRELATION ENERGY:     -0.576315921 Eh
-----------------------------------------------


---------------------
MP2 DENSITY FORMATION
---------------------

Completing the external part of the density      ... done
Storing the unrelaxed density                    ... done

Calculating the xc-kernel                        ... done
Calculating G(D)                                 ... done
Completing the Lagrangian                        ... done
Solving the Z-vector equations                   ... 

------------------------------------------------------------------------------
                           ORCA CP-SCF CALCULATION
------------------------------------------------------------------------------

Input orbitals are from        ... PbMACl3_mp2_1.orca.gbw
Input Perturbation             ... PbMACl3_mp2_1.orca.pin.tmp
Wavefunction output            ... PbMACl3_mp2_1.orca.pout.tmp
Perturbation mode              ... Real perturbation
Solver                         ... DIIS
   MaxDIIS                     ... 20
   Levelshift                  ...    3.000e-01 Eh
Max. number of iterations      ... 128
Convergence tolerance          ... 1.000e-08
Integral handling              ... Direct
COSX GridX                     ... 1
Number of perturbations        ... 1
Number of operators            ... 1
Orbital ranges used for CP-SCF:
 Operator 0:  Orbitals   0... 45  to  46...258
DFT calculation                         ... on
Exchange functional (SCF)               ... B88
Exchange functional (CP-SCF)            ... B88
   X-Alpha parameter    XAlpha (SCF)    ...  0.666667
   X-Alpha parameter    XAlpha (CP-SCF) ...  0.666667
   Becke's b parameter  XBeta (SCF)     ...  0.004200
   Becke's b parameter  XBeta (CP-SCF)  ...  0.004200
Correlation functional (SCF)            ... LYP
Correlation functional (CP-SCF)         ... LYP
 LDA part of GGA corr.  LDAOpt (SCF)    ... VWN-3
 LDA part of GGA corr.  LDAOpt (CP-SCF) ... VWN-3
Hybrid DFT                              ... on
   Exchange mixing (SCF)                ...  0.530
   Exchange mixing (CP-SCF)             ...  0.530
   GGA exch. scaling(SCF)               ...  0.470
   GGA exch. scaling (CP-SCF)           ...  0.470
   GGA corr. scaling (SCF)              ...  0.730
   GGA corr. scaling (CP-SCF)           ...  0.730
The RIJCOSX approximation is active
Variables per vector in CP-SCF ... 9798
Number of vectors sought       ... 1
Calculating the xc-kernel      ... done

Solving the CP-SCF equations by a DIIS algorithm

-----------------
CP-SCF ITERATIONS
-----------------
  Iteration   0: MaxR=  0.081874781
  Iteration   1: MaxR=  0.036028299
  Iteration   2: MaxR=  0.010701556
  Iteration   3: MaxR=  0.004142480
  Iteration   4: MaxR=  0.001677538
  Iteration   5: MaxR=  0.000578859
  Iteration   6: MaxR=  0.000231446
  Iteration   7: MaxR=  0.000072590
  Iteration   8: MaxR=  0.000027311
  Iteration   9: MaxR=  0.000007707
  Iteration  10: MaxR=  0.000002738
  Iteration  11: MaxR=  0.000000891
  Iteration  12: MaxR=  0.000000318
  Iteration  13: MaxR=  0.000000115
  Iteration  14: MaxR=  0.000000046
  Iteration  15: MaxR=  0.000000016
  Iteration  16: MaxR=  0.000000005
                              *** THE CP-SCF HAS CONVERGED *** 
done
Finalizing the relaxed density                   ... done
Transforming P to the AO basis                   ... done
Storing the relaxed density                      ... done

------------------------------------
ENERGY WEIGHTED DENSITY FINALIZATION
------------------------------------

Gathering the parts of the W-matrix              ... done
Forming the Z-density                            ... done
Transforming Z to the AO basis                   ... done
Calculating G(Z)                                 ... done
Finalizing the W-matrix                          ... done
Transforming W to the AO basis and storing       ... done
Entering the RIJONX and RIJCOSX sections
Starting the three-index derivative integrals:
Operator 0  - Memory available             ...  1000 MB
Operator 0  - Memory needed per MO         ...   1.0 MB
Operator 0  - Number of orbitals per batch ... 46
Operator 0  - Number of batches            ... 1

OPERATOR  0   PASS   0:  MOs     0 ...   45

----------------------------------
MP2 DERIVATIVE INTEGRAL GENERATION
----------------------------------


Input Correlated Electron Density   ... PbMACl3_mp2_1.orca.pmp2re
Input Energy Weighted Density       ... PbMACl3_mp2_1.orca.wmp2.tmp
Input SCF Electron Density          ... PbMACl3_mp2_1.orca.scfp.tmp

One-Electron Terms    ...
  ECP gradient                                           ... One-Electron Terms done

-----------------------------------------------------------
MP2 COSX Grid Generation
-----------------------------------------------------------

General Integration Accuracy     IntAcc      ...  4.340
Radial Grid Type                 RadialGrid  ... Gauss-Chebyshev
Angular Grid (max. acc.)         AngularGrid ... Lebedev-302
Angular grid pruning method      GridPruning ... 3 (G Style)
Weight generation scheme         WeightScheme... Becke
Basis function cutoff            BFCut       ...    1.0000e-11
Integration weight cutoff        WCut        ...    1.0000e-14
Grids for H and He will be reduced by one unit

# of grid points (after initial pruning)     ...  57718 (   0.0 sec)
# of grid points (after weights+screening)   ...  54395 (   0.1 sec)
nearest neighbour list constructed           ...    0.0 sec
Grid point re-assignment to atoms done       ...    0.0 sec
Grid point division into batches done        ...    0.2 sec
Reduced shell lists constructed in    1.5 sec

Total number of grid points                  ...    54395
Total number of batches                      ...      855
Average number of points per batch           ...       63
Average number of grid points per atom       ...     4533
Average number of shells per batch           ...    55.97 (55.41%)
Average number of basis functions per batch  ...   148.34 (57.28%)
Average number of large shells per batch     ...    42.28 (75.55%)
Average number of large basis fcns per batch ...   109.23 (73.63%)
Maximum spatial batch extension              ...  35.78, 35.78, 33.95 au
Average spatial batch extension              ...   3.10,  3.05,  3.06 au

Overlap Fitting                  UseSFitting ... on
Two electron COSX terms .... 
Integration Timings:
Total Time                  =    87.4 sec
Basis fcn evaluation        =     0.6 sec
Density evaluation          =     1.4 sec
Integral evaluation         =    82.7 sec
K(P) evaluation             =     0.9 sec
                          .... COSX two electron terms done
COSX two-electron contribution to the gradient
     0:    -0.018149    -0.022249    -0.021224
     1:     0.054339     0.061584     0.062072
     2:     0.100444    -0.082190     0.107473
     3:    -0.104526     0.097627     0.089088
     4:     0.095171     0.098578    -0.097161
     5:    -0.107146    -0.109049     0.095067
     6:     0.105363    -0.114128    -0.105191
     7:    -0.115988     0.081180    -0.124306
     8:    -0.056514    -0.068446    -0.050440
     9:     0.068879    -0.002651    -0.007788
    10:    -0.015854     0.063398    -0.013160
    11:    -0.006257    -0.003437     0.065359
Exchange-correlation gradient    ... done
Dispersion correction            ... 
Entering the calculation of the dispersion correction...

Checking the input atom types...

Done
done

                *********************************************
                * UNRELAXED MP2 DENSITY POPULATION ANALYSIS *
                *********************************************

------------------------------------------------------------------------------
                           ORCA POPULATION ANALYSIS
------------------------------------------------------------------------------
Input electron density              ... PbMACl3_mp2_1.orca.pmp2ur
BaseName (.gbw .S,...)              ... PbMACl3_mp2_1.orca

                    ********************************
                    * MULLIKEN POPULATION ANALYSIS *
                    ********************************

-----------------------
MULLIKEN ATOMIC CHARGES
-----------------------
   0 C :   -0.257386
   1 N :   -0.301708
   2 H :    0.158567
   3 H :    0.159390
   4 H :    0.157112
   5 H :    0.288747
   6 H :    0.288707
   7 H :    0.285479
   8 Pb:    0.862498
   9 Cl:   -0.538239
  10 Cl:   -0.554663
  11 Cl:   -0.548506
Sum of atomic charges:   -0.0000000

--------------------------------
MULLIKEN REDUCED ORBITAL CHARGES
--------------------------------
  0 C s       :     3.272350  s :     3.272350
      pz      :     0.973726  p :     2.900086
      px      :     0.990704
      py      :     0.935656
      dz2     :     0.008937  d :     0.077816
      dxz     :     0.019855
      dyz     :     0.019575
      dx2y2   :     0.009534
      dxy     :     0.019915
      f0      :     0.000505  f :     0.007134
      f+1     :     0.000666
      f-1     :     0.000886
      f+2     :     0.000908
      f-2     :     0.002753
      f+3     :     0.000665
      f-3     :     0.000751
  1 N s       :     3.414742  s :     3.414742
      pz      :     1.276686  p :     3.826204
      px      :     1.281466
      py      :     1.268053
      dz2     :     0.007251  d :     0.057551
      dxz     :     0.014596
      dyz     :     0.013844
      dx2y2   :     0.007785
      dxy     :     0.014076
      f0      :     0.000262  f :     0.003210
      f+1     :     0.000314
      f-1     :     0.000354
      f+2     :     0.000366
      f-2     :     0.001284
      f+3     :     0.000304
      f-3     :     0.000326
  2 H s       :     0.818691  s :     0.818691
      pz      :     0.008635  p :     0.022742
      px      :     0.008079
      py      :     0.006029
  3 H s       :     0.817871  s :     0.817871
      pz      :     0.007270  p :     0.022739
      px      :     0.007682
      py      :     0.007787
  4 H s       :     0.820173  s :     0.820173
      pz      :     0.007098  p :     0.022714
      px      :     0.007722
      py      :     0.007895
  5 H s       :     0.669010  s :     0.669010
      pz      :     0.009998  p :     0.042243
      px      :     0.015278
      py      :     0.016967
  6 H s       :     0.670215  s :     0.670215
      pz      :     0.014319  p :     0.041077
      px      :     0.010194
      py      :     0.016563
  7 H s       :     0.674361  s :     0.674361
      pz      :     0.016232  p :     0.040160
      px      :     0.015993
      py      :     0.007935
  8 Pbs       :     3.895792  s :     3.895792
      pz      :     2.333056  p :     7.049295
      px      :     2.347975
      py      :     2.368264
      dz2     :     2.022236  d :    10.102810
      dxz     :     2.020245
      dyz     :     2.019049
      dx2y2   :     2.020943
      dxy     :     2.020337
      f0      :     0.017292  f :     0.089604
      f+1     :     0.013093
      f-1     :     0.012901
      f+2     :     0.010650
      f-2     :     0.005589
      f+3     :     0.014891
      f-3     :     0.015189
  9 Cls       :     5.951537  s :     5.951537
      pz      :     3.918441  p :    11.527524
      px      :     3.703059
      py      :     3.906025
      dz2     :     0.010455  d :     0.055731
      dxz     :     0.010301
      dyz     :     0.009233
      dx2y2   :     0.015351
      dxy     :     0.010392
      f0      :     0.000447  f :     0.003447
      f+1     :     0.000553
      f-1     :     0.000408
      f+2     :     0.000492
      f-2     :     0.000396
      f+3     :     0.000642
      f-3     :     0.000509
 10 Cls       :     5.953621  s :     5.953621
      pz      :     3.920171  p :    11.544428
      px      :     3.911326
      py      :     3.712932
      dz2     :     0.010115  d :     0.053337
      dxz     :     0.009280
      dyz     :     0.009881
      dx2y2   :     0.014019
      dxy     :     0.010041
      f0      :     0.000434  f :     0.003278
      f+1     :     0.000405
      f-1     :     0.000508
      f+2     :     0.000467
      f-2     :     0.000399
      f+3     :     0.000491
      f-3     :     0.000574
 11 Cls       :     5.952980  s :     5.952980
      pz      :     3.715976  p :    11.538103
      px      :     3.920265
      py      :     3.901862
      dz2     :     0.016533  d :     0.054117
      dxz     :     0.009970
      dyz     :     0.010125
      dx2y2   :     0.008100
      dxy     :     0.009390
      f0      :     0.000725  f :     0.003306
      f+1     :     0.000487
      f-1     :     0.000492
      f+2     :     0.000387
      f-2     :     0.000398
      f+3     :     0.000422
      f-3     :     0.000396


                     *******************************
                     * LOEWDIN POPULATION ANALYSIS *
                     *******************************

----------------------
LOEWDIN ATOMIC CHARGES
----------------------
   0 C :   -0.278939
   1 N :    0.084813
   2 H :    0.125684
   3 H :    0.125903
   4 H :    0.124567
   5 H :    0.161618
   6 H :    0.165629
   7 H :    0.169048
   8 Pb:    0.077860
   9 Cl:   -0.223230
  10 Cl:   -0.271814
  11 Cl:   -0.261138

-------------------------------
LOEWDIN REDUCED ORBITAL CHARGES
-------------------------------
  0 C s       :     2.853347  s :     2.853347
      pz      :     1.030267  p :     3.075621
      px      :     1.040525
      py      :     1.004829
      dz2     :     0.031071  d :     0.311297
      dxz     :     0.080416
      dyz     :     0.083249
      dx2y2   :     0.033231
      dxy     :     0.083330
      f0      :     0.005522  f :     0.038674
      f+1     :     0.004174
      f-1     :     0.005982
      f+2     :     0.004506
      f-2     :     0.007429
      f+3     :     0.005122
      f-3     :     0.005939
  1 N s       :     2.999806  s :     2.999806
      pz      :     1.245523  p :     3.737861
      px      :     1.247440
      py      :     1.244899
      dz2     :     0.018683  d :     0.166858
      dxz     :     0.043280
      dyz     :     0.042042
      dx2y2   :     0.020444
      dxy     :     0.042410
      f0      :     0.001617  f :     0.010662
      f+1     :     0.001274
      f-1     :     0.001581
      f+2     :     0.001184
      f-2     :     0.001919
      f+3     :     0.001391
      f-3     :     0.001698
  2 H s       :     0.810301  s :     0.810301
      pz      :     0.023523  p :     0.064015
      px      :     0.022219
      py      :     0.018273
  3 H s       :     0.810070  s :     0.810070
      pz      :     0.020005  p :     0.064027
      px      :     0.022930
      py      :     0.021093
  4 H s       :     0.811459  s :     0.811459
      pz      :     0.021328  p :     0.063974
      px      :     0.021295
      py      :     0.021351
  5 H s       :     0.711734  s :     0.711734
      pz      :     0.033138  p :     0.126648
      px      :     0.044668
      py      :     0.048843
  6 H s       :     0.712168  s :     0.712168
      pz      :     0.041097  p :     0.122203
      px      :     0.033879
      py      :     0.047227
  7 H s       :     0.711679  s :     0.711679
      pz      :     0.047020  p :     0.119273
      px      :     0.045907
      py      :     0.026346
  8 Pbs       :     3.753890  s :     3.753890
      pz      :     2.468532  p :     7.472827
      px      :     2.497531
      py      :     2.506765
      dz2     :     2.151368  d :    10.506768
      dxz     :     2.069501
      dyz     :     2.065816
      dx2y2   :     2.148295
      dxy     :     2.071788
      f0      :     0.042320  f :     0.188655
      f+1     :     0.027475
      f-1     :     0.025703
      f+2     :     0.018397
      f-2     :     0.006312
      f+3     :     0.035600
      f-3     :     0.032848
  9 Cls       :     5.756560  s :     5.756560
      pz      :     3.866945  p :    11.394251
      px      :     3.675735
      py      :     3.851571
      dz2     :     0.013225  d :     0.068127
      dxz     :     0.010050
      dyz     :     0.010315
      dx2y2   :     0.023872
      dxy     :     0.010666
      f0      :     0.000452  f :     0.004292
      f+1     :     0.000816
      f-1     :     0.000434
      f+2     :     0.000561
      f-2     :     0.000399
      f+3     :     0.001055
      f-3     :     0.000575
 10 Cls       :     5.779587  s :     5.779587
      pz      :     3.874121  p :    11.425580
      px      :     3.865250
      py      :     3.686210
      dz2     :     0.012210  d :     0.062764
      dxz     :     0.009967
      dyz     :     0.009870
      dx2y2   :     0.020590
      dxy     :     0.010127
      f0      :     0.000441  f :     0.003883
      f+1     :     0.000429
      f-1     :     0.000686
      f+2     :     0.000521
      f-2     :     0.000409
      f+3     :     0.000528
      f-3     :     0.000869
 11 Cls       :     5.775326  s :     5.775326
      pz      :     3.686561  p :    11.417598
      px      :     3.875216
      py      :     3.855820
      dz2     :     0.025225  d :     0.064243
      dxz     :     0.009769
      dyz     :     0.010367
      dx2y2   :     0.008230
      dxy     :     0.010653
      f0      :     0.001197  f :     0.003970
      f+1     :     0.000515
      f-1     :     0.000569
      f+2     :     0.000391
      f-2     :     0.000408
      f+3     :     0.000479
      f-3     :     0.000411


                      *****************************
                      * MAYER POPULATION ANALYSIS *
                      *****************************

  NA   - Mulliken gross atomic population
  ZA   - Total nuclear charge
  QA   - Mulliken gross atomic charge
  VA   - Mayer's total valence
  BVA  - Mayer's bonded valence
  FA   - Mayer's free valence

  ATOM       NA         ZA         QA         VA         BVA        FA
  0 C      6.2574     6.0000    -0.2574     3.8850     3.7705     0.1145
  1 N      7.3017     7.0000    -0.3017     3.4132     3.2704     0.1428
  2 H      0.8414     1.0000     0.1586     0.9650     0.9466     0.0184
  3 H      0.8406     1.0000     0.1594     0.9644     0.9461     0.0183
  4 H      0.8429     1.0000     0.1571     0.9639     0.9455     0.0184
  5 H      0.7113     1.0000     0.2887     0.9783     0.9578     0.0205
  6 H      0.7113     1.0000     0.2887     0.9696     0.9494     0.0201
  7 H      0.7145     1.0000     0.2855     0.9744     0.9542     0.0203
  8 Pb    21.1375    22.0000     0.8625     2.1884     1.8295     0.3589
  9 Cl    17.5382    17.0000    -0.5382     1.0198     0.7593     0.2605
 10 Cl    17.5547    17.0000    -0.5547     0.9963     0.7351     0.2612
 11 Cl    17.5485    17.0000    -0.5485     1.0079     0.7469     0.2610

  Mayer bond orders larger than 0.1
B(  0-C ,  1-N ) :   0.8862 B(  0-C ,  2-H ) :   0.9551 B(  0-C ,  3-H ) :   0.9545 
B(  0-C ,  4-H ) :   0.9549 B(  1-N ,  5-H ) :   0.8015 B(  1-N ,  6-H ) :   0.8167 
B(  1-N ,  7-H ) :   0.8206 B(  5-H , 11-Cl) :   0.1614 B(  6-H ,  9-Cl) :   0.1322 
B(  7-H , 10-Cl) :   0.1325 B(  8-Pb,  9-Cl) :   0.6271 B(  8-Pb, 10-Cl) :   0.6036 
B(  8-Pb, 11-Cl) :   0.5927 


                *******************************************
                * RELAXED MP2 DENSITY POPULATION ANALYSIS *
                *******************************************

------------------------------------------------------------------------------
                           ORCA POPULATION ANALYSIS
------------------------------------------------------------------------------
Input electron density              ... PbMACl3_mp2_1.orca.pmp2re
BaseName (.gbw .S,...)              ... PbMACl3_mp2_1.orca

                    ********************************
                    * MULLIKEN POPULATION ANALYSIS *
                    ********************************

-----------------------
MULLIKEN ATOMIC CHARGES
-----------------------
   0 C :   -0.275872
   1 N :   -0.297042
   2 H :    0.162566
   3 H :    0.163358
   4 H :    0.161147
   5 H :    0.282661
   6 H :    0.282845
   7 H :    0.279581
   8 Pb:    0.809714
   9 Cl:   -0.514345
  10 Cl:   -0.530308
  11 Cl:   -0.524306
Sum of atomic charges:   -0.0000000

--------------------------------
MULLIKEN REDUCED ORBITAL CHARGES
--------------------------------
  0 C s       :     3.275983  s :     3.275983
      pz      :     0.980078  p :     2.919362
      px      :     0.996890
      py      :     0.942394
      dz2     :     0.009140  d :     0.073554
      dxz     :     0.018288
      dyz     :     0.018037
      dx2y2   :     0.009722
      dxy     :     0.018367
      f0      :     0.000486  f :     0.006973
      f+1     :     0.000658
      f-1     :     0.000872
      f+2     :     0.000901
      f-2     :     0.002672
      f+3     :     0.000650
      f-3     :     0.000735
  1 N s       :     3.415508  s :     3.415508
      pz      :     1.275430  p :     3.822371
      px      :     1.280342
      py      :     1.266599
      dz2     :     0.007396  d :     0.056010
      dxz     :     0.013983
      dyz     :     0.013219
      dx2y2   :     0.007938
      dxy     :     0.013473
      f0      :     0.000258  f :     0.003153
      f+1     :     0.000313
      f-1     :     0.000354
      f+2     :     0.000366
      f-2     :     0.001237
      f+3     :     0.000299
      f-3     :     0.000326
  2 H s       :     0.815064  s :     0.815064
      pz      :     0.008457  p :     0.022370
      px      :     0.007936
      py      :     0.005977
  3 H s       :     0.814275  s :     0.814275
      pz      :     0.007173  p :     0.022366
      px      :     0.007538
      py      :     0.007655
  4 H s       :     0.816507  s :     0.816507
      pz      :     0.006987  p :     0.022346
      px      :     0.007601
      py      :     0.007758
  5 H s       :     0.675545  s :     0.675545
      pz      :     0.009908  p :     0.041794
      px      :     0.015111
      py      :     0.016775
  6 H s       :     0.676506  s :     0.676506
      pz      :     0.014176  p :     0.040649
      px      :     0.010098
      py      :     0.016375
  7 H s       :     0.680680  s :     0.680680
      pz      :     0.016018  p :     0.039738
      px      :     0.015804
      py      :     0.007916
  8 Pbs       :     3.909825  s :     3.909825
      pz      :     2.349785  p :     7.091663
      px      :     2.361843
      py      :     2.380035
      dz2     :     2.019533  d :    10.100684
      dxz     :     2.021492
      dyz     :     2.020002
      dx2y2   :     2.018349
      dxy     :     2.021309
      f0      :     0.016837  f :     0.088113
      f+1     :     0.012902
      f-1     :     0.012712
      f+2     :     0.010606
      f-2     :     0.005579
      f+3     :     0.014569
      f-3     :     0.014909
  9 Cls       :     5.952208  s :     5.952208
      pz      :     3.911552  p :    11.502968
      px      :     3.693623
      py      :     3.897792
      dz2     :     0.010396  d :     0.055706
      dxz     :     0.010365
      dyz     :     0.009327
      dx2y2   :     0.015133
      dxy     :     0.010485
      f0      :     0.000450  f :     0.003463
      f+1     :     0.000553
      f-1     :     0.000409
      f+2     :     0.000498
      f-2     :     0.000396
      f+3     :     0.000641
      f-3     :     0.000514
 10 Cls       :     5.954418  s :     5.954418
      pz      :     3.913453  p :    11.519346
      px      :     3.903891
      py      :     3.702002
      dz2     :     0.010078  d :     0.053251
      dxz     :     0.009347
      dyz     :     0.009900
      dx2y2   :     0.013883
      dxy     :     0.010043
      f0      :     0.000436  f :     0.003293
      f+1     :     0.000407
      f-1     :     0.000508
      f+2     :     0.000472
      f-2     :     0.000400
      f+3     :     0.000495
      f-3     :     0.000575
 11 Cls       :     5.953735  s :     5.953735
      pz      :     3.705764  p :    11.513148
      px      :     3.913714
      py      :     3.893670
      dz2     :     0.016241  d :     0.054100
      dxz     :     0.010037
      dyz     :     0.010209
      dx2y2   :     0.008121
      dxy     :     0.009491
      f0      :     0.000725  f :     0.003323
      f+1     :     0.000492
      f-1     :     0.000497
      f+2     :     0.000388
      f-2     :     0.000399
      f+3     :     0.000425
      f-3     :     0.000397


                     *******************************
                     * LOEWDIN POPULATION ANALYSIS *
                     *******************************

----------------------
LOEWDIN ATOMIC CHARGES
----------------------
   0 C :   -0.288421
   1 N :    0.080862
   2 H :    0.127778
   3 H :    0.127989
   4 H :    0.126683
   5 H :    0.160004
   6 H :    0.164181
   7 H :    0.167595
   8 Pb:    0.048448
   9 Cl:   -0.210219
  10 Cl:   -0.257635
  11 Cl:   -0.247265

-------------------------------
LOEWDIN REDUCED ORBITAL CHARGES
-------------------------------
  0 C s       :     2.854626  s :     2.854626
      pz      :     1.034603  p :     3.088693
      px      :     1.044806
      py      :     1.009284
      dz2     :     0.031281  d :     0.306662
      dxz     :     0.078772
      dyz     :     0.081529
      dx2y2   :     0.033407
      dxy     :     0.081673
      f0      :     0.005508  f :     0.038440
      f+1     :     0.004151
      f-1     :     0.005960
      f+2     :     0.004474
      f-2     :     0.007329
      f+3     :     0.005093
      f-3     :     0.005925
  1 N s       :     3.001594  s :     3.001594
      pz      :     1.246402  p :     3.740111
      px      :     1.248404
      py      :     1.245306
      dz2     :     0.018926  d :     0.166699
      dxz     :     0.043060
      dyz     :     0.041817
      dx2y2   :     0.020707
      dxy     :     0.042189
      f0      :     0.001634  f :     0.010733
      f+1     :     0.001280
      f-1     :     0.001590
      f+2     :     0.001185
      f-2     :     0.001933
      f+3     :     0.001401
      f-3     :     0.001710
  2 H s       :     0.808121  s :     0.808121
      pz      :     0.023512  p :     0.064101
      px      :     0.022231
      py      :     0.018358
  3 H s       :     0.807897  s :     0.807897
      pz      :     0.020054  p :     0.064114
      px      :     0.022938
      py      :     0.021122
  4 H s       :     0.809248  s :     0.809248
      pz      :     0.021365  p :     0.064069
      px      :     0.021325
      py      :     0.021378
  5 H s       :     0.713471  s :     0.713471
      pz      :     0.033116  p :     0.126525
      px      :     0.044621
      py      :     0.048789
  6 H s       :     0.713743  s :     0.713743
      pz      :     0.041061  p :     0.122076
      px      :     0.033841
      py      :     0.047174
  7 H s       :     0.713247  s :     0.713247
      pz      :     0.046950  p :     0.119158
      px      :     0.045855
      py      :     0.026352
  8 Pbs       :     3.766478  s :     3.766478
      pz      :     2.480078  p :     7.499634
      px      :     2.506199
      py      :     2.513357
      dz2     :     2.147000  d :    10.498995
      dxz     :     2.070041
      dyz     :     2.066050
      dx2y2   :     2.143949
      dxy     :     2.071955
      f0      :     0.041705  f :     0.186446
      f+1     :     0.027185
      f-1     :     0.025396
      f+2     :     0.018271
      f-2     :     0.006292
      f+3     :     0.035171
      f-3     :     0.032425
  9 Cls       :     5.759695  s :     5.759695
      pz      :     3.861842  p :    11.377218
      px      :     3.669769
      py      :     3.845607
      dz2     :     0.013335  d :     0.068942
      dxz     :     0.010179
      dyz     :     0.010428
      dx2y2   :     0.024191
      dxy     :     0.010809
      f0      :     0.000457  f :     0.004363
      f+1     :     0.000833
      f-1     :     0.000436
      f+2     :     0.000571
      f-2     :     0.000399
      f+3     :     0.001083
      f-3     :     0.000584
 10 Cls       :     5.782619  s :     5.782619
      pz      :     3.869068  p :    11.407731
      px      :     3.859806
      py      :     3.678857
      dz2     :     0.012293  d :     0.063349
      dxz     :     0.010058
      dyz     :     0.009964
      dx2y2   :     0.020822
      dxy     :     0.010211
      f0      :     0.000446  f :     0.003937
      f+1     :     0.000431
      f-1     :     0.000697
      f+2     :     0.000529
      f-2     :     0.000411
      f+3     :     0.000537
      f-3     :     0.000886
 11 Cls       :     5.778396  s :     5.778396
      pz      :     3.679685  p :    11.399943
      px      :     3.870343
      py      :     3.849915
      dz2     :     0.025516  d :     0.064900
      dxz     :     0.009869
      dyz     :     0.010485
      dx2y2   :     0.008250
      dxy     :     0.010780
      f0      :     0.001231  f :     0.004027
      f+1     :     0.000523
      f-1     :     0.000577
      f+2     :     0.000392
      f-2     :     0.000409
      f+3     :     0.000483
      f-3     :     0.000412


                      *****************************
                      * MAYER POPULATION ANALYSIS *
                      *****************************

  NA   - Mulliken gross atomic population
  ZA   - Total nuclear charge
  QA   - Mulliken gross atomic charge
  VA   - Mayer's total valence
  BVA  - Mayer's bonded valence
  FA   - Mayer's free valence

  ATOM       NA         ZA         QA         VA         BVA        FA
  0 C      6.2759     6.0000    -0.2759     3.8862     3.7720     0.1142
  1 N      7.2970     7.0000    -0.2970     3.4182     3.2758     0.1424
  2 H      0.8374     1.0000     0.1626     0.9638     0.9455     0.0183
  3 H      0.8366     1.0000     0.1634     0.9632     0.9450     0.0183
  4 H      0.8389     1.0000     0.1611     0.9628     0.9444     0.0183
  5 H      0.7173     1.0000     0.2827     0.9844     0.9640     0.0204
  6 H      0.7172     1.0000     0.2828     0.9757     0.9557     0.0200
  7 H      0.7204     1.0000     0.2796     0.9807     0.9605     0.0202
  8 Pb    21.1903    22.0000     0.8097     2.2669     1.9128     0.3541
  9 Cl    17.5143    17.0000    -0.5143     1.0623     0.8032     0.2591
 10 Cl    17.5303    17.0000    -0.5303     1.0392     0.7794     0.2598
 11 Cl    17.5243    17.0000    -0.5243     1.0508     0.7912     0.2596

  Mayer bond orders larger than 0.1
B(  0-C ,  1-N ) :   0.8938 B(  0-C ,  2-H ) :   0.9523 B(  0-C ,  3-H ) :   0.9518 
B(  0-C ,  4-H ) :   0.9522 B(  1-N ,  5-H ) :   0.7975 B(  1-N ,  6-H ) :   0.8131 
B(  1-N ,  7-H ) :   0.8171 B(  5-H , 11-Cl) :   0.1719 B(  6-H ,  9-Cl) :   0.1420 
B(  7-H , 10-Cl) :   0.1422 B(  8-Pb,  9-Cl) :   0.6540 B(  8-Pb, 10-Cl) :   0.6312 
B(  8-Pb, 11-Cl) :   0.6191 


-------
TIMINGS
-------

Total time                :  491.888 sec
Integral trafo            :    2.344 sec (  0.5%)
I/O of integrals          :    0.367 sec (  0.1%)
K(i,j) Operators          :    6.026 sec (  1.2%)
T(i,j) pair energies      :    1.112 sec (  0.2%)
V-calculation             :    0.013 sec (  0.0%)
V**(-1/2)                 :    0.028 sec (  0.0%)
Gamma(ia|P)               :    5.491 sec (  1.1%)
Gamma-Trafo               :    0.785 sec (  0.2%)
D(virtual)                :    2.388 sec (  0.5%)
D(internal)               :    3.914 sec (  0.8%)
W(virtual)                :    4.936 sec (  1.0%)
W(internal)               :   13.924 sec (  2.8%)
L(virtual)                :    5.410 sec (  1.1%)
L(internal)               :    0.244 sec (  0.0%)
G(D)                      :   12.642 sec (  2.6%)
G(Z)                      :   14.054 sec (  2.9%)
Z-Vector Solution         :  308.243 sec ( 62.7%)
Z-Vector Solution         :  308.243 sec ( 62.7%)
3-Index Derivative 
+ Separable RIJ part      :    4.833 sec (  1.0%)
2-Index Derivative 
+ Separable RIJ part      :    0.029 sec (  0.0%)
Separable Gradient (COSX) :  102.877 sec ( 20.9%)


---------------------------------------
MP2 TOTAL ENERGY:    -1669.632365079 Eh
---------------------------------------

The final MP2 gradient
  0:   0.00014086   0.00031711   0.00026618
  1:   0.00314824   0.00141871   0.00438451
  2:   0.00280969  -0.00214592   0.00302414
  3:  -0.00281273   0.00269620   0.00251472
  4:   0.00259565   0.00272016  -0.00263693
  5:  -0.00401973  -0.00265577   0.00189250
  6:   0.00259059  -0.00356117  -0.00484546
  7:  -0.00263658   0.00138306  -0.00424607
  8:   0.00434396  -0.00454397  -0.00371642
  9:  -0.00210586  -0.00090106  -0.00000174
 10:  -0.00366363   0.00615615  -0.00222644
 11:  -0.00063281  -0.00061394   0.00543351

-----------------------------------
NORM OF THE MP2 GRADIENT:  0.018365
-----------------------------------

Entering the calculation of the dispersion correction...

Checking the input atom types...

Done


-------------------------------------------------------------------------------
                          DFT DISPERSION CORRECTION                            
                                                                               
                                DFTD3 V2.1  Rev 6                               
                          USING Becke-Johnson damping                          
-------------------------------------------------------------------------------
The B2PLYP functional is recognized
Active option DFTDOPT                   ...         4   

molecular C6(AA) [au] = 4874.822538 


            DFT-D V3
 parameters
 s6 scaling factor         :     0.6400 
 a1 scaling factor         :     0.3065 
 s8 scaling factor         :     0.9147 
 a2 scaling factor         :     5.0570 
 ad hoc parameters k1-k3   :    16.0000     1.3333    -4.0000 

 Edisp/kcal,au: -8.513315809620  -0.013566830866 
 E6   /kcal   :  -3.905270913 
 E8   /kcal   :  -4.608044897 
 % E8         :  54.127498611 

-------------------------   ----------------
Dispersion correction           -0.013566831
-------------------------   ----------------


-------------------------   --------------------
FINAL SINGLE POINT ENERGY     -1669.645931910000
-------------------------   --------------------


                            ***************************************
                            *     ORCA property calculations      *
                            ***************************************


  WARNING: The energy has been calculated at the MP2 level but the densities
           used in the property calculations are still SCF densities
           MP2 response densities have not been calculated 
           use %mp2 Density relaxed end
           or  %mp2 Density unrelaxed end

                                    ---------------------
                                    Active property flags
                                    ---------------------
   (+) Dipole Moment


------------------------------------------------------------------------------
                       ORCA ELECTRIC PROPERTIES CALCULATION
------------------------------------------------------------------------------

Dipole Moment Calculation                       ... on
Quadrupole Moment Calculation                   ... off
Polarizability Calculation                      ... off
GBWName                                         ... PbMACl3_mp2_1.orca.gbw
Electron density file                           ... PbMACl3_mp2_1.orca.scfp.tmp

-------------
DIPOLE MOMENT
-------------
                                X             Y             Z
Electronic contribution:    -76.14647     -98.94402     -74.79977
Nuclear contribution   :     77.07833      99.85676      75.48845
                        -----------------------------------------
Total Dipole Moment    :      0.93186       0.91274       0.68867
                        -----------------------------------------
Magnitude (a.u.)       :      1.47503
Magnitude (Debye)      :      3.74924


                         *** MP2 UNRELAXED DENSITY ***

------------------------------------------------------------------------------
                       ORCA ELECTRIC PROPERTIES CALCULATION
------------------------------------------------------------------------------

Dipole Moment Calculation                       ... on
Quadrupole Moment Calculation                   ... off
Polarizability Calculation                      ... off
GBWName                                         ... PbMACl3_mp2_1.orca.gbw
Electron density file                           ... PbMACl3_mp2_1.orca.pmp2ur

-------------
DIPOLE MOMENT
-------------
                                X             Y             Z
Electronic contribution:    -76.13943     -98.93251     -74.79106
Nuclear contribution   :     77.07833      99.85676      75.48845
                        -----------------------------------------
Total Dipole Moment    :      0.93890       0.92425       0.69739
                        -----------------------------------------
Magnitude (a.u.)       :      1.49068
Magnitude (Debye)      :      3.78901


                           *** MP2 RELAXED DENSITY ***

------------------------------------------------------------------------------
                       ORCA ELECTRIC PROPERTIES CALCULATION
------------------------------------------------------------------------------

Dipole Moment Calculation                       ... on
Quadrupole Moment Calculation                   ... off
Polarizability Calculation                      ... off
GBWName                                         ... PbMACl3_mp2_1.orca.gbw
Electron density file                           ... PbMACl3_mp2_1.orca.pmp2re

-------------
DIPOLE MOMENT
-------------
                                X             Y             Z
Electronic contribution:    -76.15719     -98.94470     -74.79930
Nuclear contribution   :     77.07833      99.85676      75.48845
                        -----------------------------------------
Total Dipole Moment    :      0.92114       0.91206       0.68915
                        -----------------------------------------
Magnitude (a.u.)       :      1.46809
Magnitude (Debye)      :      3.73158


Timings for individual modules:

Sum of individual times         ...      681.199 sec (=  11.353 min)
GTO integral calculation        ...        0.569 sec (=   0.009 min)   0.1 %
SCF iterations                  ...      187.573 sec (=   3.126 min)  27.5 %
MP2 module                      ...      493.056 sec (=   8.218 min)  72.4 %
                             ****ORCA TERMINATED NORMALLY****
TOTAL RUN TIME: 0 days 0 hours 11 minutes 21 seconds 720 msec
