
                                 *****************
                                 * O   R   C   A *
                                 *****************

           --- An Ab Initio, DFT and Semiempirical electronic structure package ---

                  #######################################################
                  #                        -***-                        #
                  #  Department of molecular theory and spectroscopy    #
                  #              Directorship: Frank Neese              #
                  # Max Planck Institute for Chemical Energy Conversion #
                  #                  D-45470 Muelheim/Ruhr              #
                  #                       Germany                       #
                  #                                                     #
                  #                  All rights reserved                #
                  #                        -***-                        #
                  #######################################################


                         Program Version 3.0.3 - RELEASE   -


 With contributions from (in alphabetic order):
   Ute Becker             : Parallelization
   Dmytro Bykov           : SCF Hessian
   Dmitry Ganyushin       : Spin-Orbit,Spin-Spin,Magnetic field MRCI
   Andreas Hansen         : Spin unrestricted coupled pair/coupled cluster methods
   Dimitrios Liakos       : Extrapolation schemes; parallel MDCI
   Robert Izsak           : Overlap fitted RIJCOSX, COSX-SCS-MP3
   Christian Kollmar      : KDIIS, OOCD, Brueckner-CCSD(T), CCSD density
   Simone Kossmann        : Meta GGA functionals, TD-DFT gradient, OOMP2, MP2 Hessian
   Taras Petrenko         : DFT Hessian,TD-DFT gradient, ASA and ECA modules, normal mode analysis, Resonance Raman, ABS, FL, XAS/XES, NRVS
   Christoph Reimann      : Effective Core Potentials
   Michael Roemelt        : Restricted open shell CIS
   Christoph Riplinger    : Improved optimizer, TS searches, QM/MM, DLPNO-CCSD
   Barbara Sandhoefer     : DKH picture change effects
   Igor Schapiro          : Molecular dynamics
   Kantharuban Sivalingam : CASSCF convergence, NEVPT2
   Boris Wezisla          : Elementary symmetry handling
   Frank Wennmohs         : Technical directorship


 We gratefully acknowledge several colleagues who have allowed us to
 interface, adapt or use parts of their codes:
   Stefan Grimme, W. Hujo, H. Kruse, T. Risthaus : VdW corrections, initial TS optimization,
                                                   DFT functionals, gCP
   Ed Valeev                                     : LibInt (2-el integral package), F12 methods
   Garnet Chan, S. Sharma, R. Olivares           : DMRG
   Ulf Ekstrom                                   : XCFun DFT Library
   Mihaly Kallay                                 : mrcc  (arbitrary order and MRCC methods)
   Andreas Klamt, Michael Diedenhofen            : otool_cosmo (COSMO solvation model)
   Frank Weinhold                                : gennbo (NPA and NBO analysis)
   Christopher J. Cramer and Donald G. Truhlar   : smd solvation model


 Your calculation uses the libint2 library for the computation of 2-el integrals
 For citations please refer to: http://libint.valeyev.net

 This ORCA versions uses:
   CBLAS   interface :  Fast vector & matrix operations
   LAPACKE interface :  Fast linear algebra routines
   SCALAPACK package :  Parallel linear algebra routines


Your calculation utilizes the basis: Ahlrichs-TZV
Cite in your paper:
H - Kr: A. Schaefer, H. Horn and R. Ahlrichs, J. Chem. Phys. 97, 2571 (1992).

The def2-TZV basis will be loaded
Cite in your paper:
 	F. Weigend, R. Ahlrichs, Phys. Chem. Chem. Phys. 2005, 7, 3297.

Your calculation utilizes the atom-pairwise dispersion correction
with the Becke-Johnson damping scheme (D3BJ)
Cite in your paper:
S.Grimme, S.Ehrlich, L.Goerigk, J Comput Chem, (2011), 32, 1456–1465 
S.Grimme, J.Antony, S.Ehrlich and H.Krieg, J.Chem.Phys., 132, (2010), 154104 
   

================================================================================
                                        WARNINGS
                       Please study these warnings very carefully!
================================================================================

WARNING: The RI method has been chosen with no auxiliary basis (AUX or GTOAUX in BASIS block)
        Standard TZV/J expansion basis used (GTOAUX=TZV_J)

Now building the actual basis set
cite the ECPs for Pb [SD(60,MDF)] as follows:
  B. Metz, H. Stoll, M. Dolg, J. Chem. Phys. 113, 2563 (2000).

ECP parameters for Pb [SD(60,MDF)] have been obtained from:
  pseudopotential library of the Stuttgart/Cologne group
  http://www.theochem.uni-stuttgart.de/pseudopotentials/

cite the ECP basis sets for Pb [DEF2-TZVP] as follows:
  F. Weigend, R. Ahlrichs; Phys. Chem. Chem. Phys. 7, 3297(2005).

ECP basis sets for Pb [DEF2-TZVP] have been obtained from:
  Turbomole basis set library
  ftp://ftp.chemie.uni-karlsruhe.de/pub/basen/



INFO   : the flag for use of LIBINT has been found!

================================================================================
                                       INPUT FILE
================================================================================
NAME = PbMACl3_mp2_md_10.orca
|  1> ! RIJCOSX RI-B2PLYP D3BJ def2-TZVP ECP{def2-TZVP} TIGHTSCF Grid5 FinalGrid6 SlowConv MORead
|  2> %method
|  3>  RunTyp Gradient
|  4>  end
|  5> %maxcore 1000
|  6> %moinp "previous.gbw"
|  7> *xyz 0 1
|  8> C -0.760190 0.909341 -1.086440 
|  9> N -1.977690 1.456660 -1.577970 
| 10> H -2.691090 1.445120 -0.786035 
| 11> H -2.304120 0.990955 -2.421840 
| 12> H -1.868850 2.367110 -1.753930 
| 13> H -0.842687 -0.183835 -0.878458 
| 14> H -0.526251 1.481800 -0.138118 
| 15> H -0.028525 0.915195 -1.900720 
| 16> Pb -2.874560 -2.630780 -2.008110 
| 17> Cl -1.385350 -4.356700 -3.237970 
| 18> Cl -2.704660 -0.420993 -3.104400 
| 19> Cl -5.146600 -3.314820 -1.376770 
| 20> *
| 21> 
| 22>                          ****END OF INPUT****
================================================================================

                     *******************************
                     * Energy+Gradient Calculation *
                     *******************************

---------------------------------
CARTESIAN COORDINATES (ANGSTROEM)
---------------------------------
  C     -0.760190    0.909341   -1.086440
  N     -1.977690    1.456660   -1.577970
  H     -2.691090    1.445120   -0.786035
  H     -2.304120    0.990955   -2.421840
  H     -1.868850    2.367110   -1.753930
  H     -0.842687   -0.183835   -0.878458
  H     -0.526251    1.481800   -0.138118
  H     -0.028525    0.915195   -1.900720
  Pb    -2.874560   -2.630780   -2.008110
  Cl    -1.385350   -4.356700   -3.237970
  Cl    -2.704660   -0.420993   -3.104400
  Cl    -5.146600   -3.314820   -1.376770

----------------------------
CARTESIAN COORDINATES (A.U.)
----------------------------
  NO LB      ZA    FRAG    MASS        X           Y           Z
   0 C     6.0000    0    12.011         -1.436550909745596          1.718405452346085         -2.053074060937405
   1 N     7.0000    0    14.007         -3.737292477794720          2.752688470237731         -2.981931147543718
   2 H     1.0000    0     1.008         -5.085423101734141          2.730881030652279         -1.485390881676791
   3 H     1.0000    0     1.008         -4.354155779690634          1.872633561039934         -4.576614340175844
   4 H     1.0000    0     1.008         -3.531614685378731          4.473189628866334         -3.314447358068501
   5 H     1.0000    0     1.008         -1.592447646615698         -0.347397803829413         -1.660045040152195
   6 H     1.0000    0     1.008         -0.994470267702193          2.800196185244511         -0.261005194164935
   7 H     1.0000    0     1.008         -0.053904437970104          1.729467909134060         -3.591840257266802
   8 Pb   22.0000*   0   207.200  -5.432131155524673  -4.971453718597351  -3.794777946788604
   9 Cl   17.0000    0    35.453         -2.617932099627806         -8.232969847654717         -6.118876529852995
  10 Cl   17.0000    0    35.453         -5.111066685371453         -0.795561474297909         -5.866465810145134
  11 Cl   17.0000    0    35.453         -9.725664520839114         -6.264101983244844         -2.601718249398762
* core charge reduced due to ECP

--------------------------------
INTERNAL COORDINATES (ANGSTROEM)
--------------------------------
 C      0   0   0   0.000000     0.000     0.000
 N      1   0   0   1.422486     0.000     0.000
 H      2   1   0   1.065943   108.176     0.000
 H      2   1   3   1.017622   112.645   233.907
 H      2   1   3   0.933663   109.910   112.012
 H      1   2   3   1.115839   112.215    68.910
 H      1   2   3   1.132145   105.768   308.031
 H      1   2   3   1.094724   108.238   179.667
 Pb     6   1   2   3.375228   133.818    23.254
 Cl     9   6   1   2.590193   107.210   117.376
 Cl     4   2   1   1.618616   145.922    54.944
 Cl     9   6   1   2.455334   132.297   278.260

---------------------------
INTERNAL COORDINATES (A.U.)
---------------------------
 C      0   0   0   0.000000     0.000     0.000
 N      1   0   0   2.688109     0.000     0.000
 H      2   1   0   2.014340   108.176     0.000
 H      2   1   3   1.923027   112.645   233.907
 H      2   1   3   1.764368   109.910   112.012
 H      1   2   3   2.108630   112.215    68.910
 H      1   2   3   2.139443   105.768   308.031
 H      1   2   3   2.068728   108.238   179.667
 Pb     6   1   2   6.378256   133.818    23.254
 Cl     9   6   1   4.894756   107.210   117.376
 Cl     4   2   1   3.058741   145.922    54.944
 Cl     9   6   1   4.639909   132.297   278.260

---------------------
BASIS SET INFORMATION
---------------------
There are 5 groups of distinct atoms

 Group   1 Type C   : 11s6p2d1f contracted to 5s3p2d1f pattern {62111/411/11/1}
 Group   2 Type N   : 11s6p2d1f contracted to 5s3p2d1f pattern {62111/411/11/1}
 Group   3 Type H   : 5s1p contracted to 3s1p pattern {311/1}
 Group   4 Type Pb  : 10s9p8d2f contracted to 6s5p3d2f pattern {421111/33111/611/11}
 Group   5 Type Cl  : 14s9p3d1f contracted to 5s5p2d1f pattern {73211/51111/21/1}

Atom   0C    basis set group =>   1
Atom   1N    basis set group =>   2
Atom   2H    basis set group =>   3
Atom   3H    basis set group =>   3
Atom   4H    basis set group =>   3
Atom   5H    basis set group =>   3
Atom   6H    basis set group =>   3
Atom   7H    basis set group =>   3
Atom   8Pb   basis set group =>   4
Atom   9Cl   basis set group =>   5
Atom  10Cl   basis set group =>   5
Atom  11Cl   basis set group =>   5
-------------------------------
AUXILIARY BASIS SET INFORMATION
-------------------------------
There are 5 groups of distinct atoms

 Group   1 Type C   : 12s5p4d2f1g contracted to 6s4p3d1f1g pattern {711111/2111/211/2/1}
 Group   2 Type N   : 12s5p4d2f1g contracted to 6s4p3d1f1g pattern {711111/2111/211/2/1}
 Group   3 Type H   : 5s2p1d contracted to 3s1p1d pattern {311/2/1}
 Group   4 Type Pb  : 31s12p8d6f3g contracted to 31s12p8d6f3g pattern {1111111111111111111111111111111/111111111111/11111111/111111/111}
 Group   5 Type Cl  : 14s5p5d2f1g contracted to 8s4p3d1f1g pattern {71111111/2111/311/2/1}

Atom   0C    basis set group =>   1
Atom   1N    basis set group =>   2
Atom   2H    basis set group =>   3
Atom   3H    basis set group =>   3
Atom   4H    basis set group =>   3
Atom   5H    basis set group =>   3
Atom   6H    basis set group =>   3
Atom   7H    basis set group =>   3
Atom   8Pb   basis set group =>   4
Atom   9Cl   basis set group =>   5
Atom  10Cl   basis set group =>   5
Atom  11Cl   basis set group =>   5

-------------------------
ECP PARAMETER INFORMATION
-------------------------

 Group 1, Type Pb ECP SD(60,MDF) (replacing 60 core electrons, lmax=5)

Atom   8Pb   ECP group =>   1


------------------------------------------------------------------------------
                           ORCA GTO INTEGRAL CALCULATION
                           -- RI-GTO INTEGRALS CHOSEN --
------------------------------------------------------------------------------

                         BASIS SET STATISTICS AND STARTUP INFO

Gaussian basis set:
 # of primitive gaussian shells          ...  186
 # of primitive gaussian functions       ...  420
 # of contracted shells                  ...  101
 # of contracted basis functions         ...  259
 Highest angular momentum                ...    3
 Maximum contraction depth               ...    7
Auxiliary gaussian basis set:
 # of primitive gaussian shells          ...  237
 # of primitive gaussian functions       ...  643
 # of contracted shells                  ...  171
 # of contracted aux-basis functions     ...  493
 Highest angular momentum                ...    4
 Maximum contraction depth               ...    7
Ratio of auxiliary to basis functions    ...  1.90
Integral package used                  ... LIBINT
 One Electron integrals                  
   ECP integrals                         ... done
 Ordering auxiliary basis shells         ... done
 Integral threshhold             Thresh  ...  2.500e-11
 Primitive cut-off               TCut    ...  2.500e-12
 Pre-screening matrix                    ... done
 Shell pair data                         ... 
 Ordering of the shell pairs             ... done (   0.001 sec) 4073 of 5151 pairs
 Determination of significant pairs      ... done (   0.000 sec)
 Creation of shell pair data             ... done (   0.002 sec)
 Storage of shell pair data              ... done (   0.001 sec)
 Shell pair data done in (   0.004 sec)
 Computing two index integrals           ... done
 Cholesky decomposition of the V-matrix  ... done


Timings:
 Total evaluation time                   ...   1.148 sec (  0.019 min)
 One electron matrix time                ...   0.610 sec (  0.010 min) = 53.1%
 Schwartz matrix evaluation time         ...   0.365 sec (  0.006 min) = 31.7%
 Two index repulsion integral time       ...   0.011 sec (  0.000 min) =  1.0%
 Cholesky decomposition of V             ...   0.107 sec (  0.002 min) =  9.3%
 Three index repulsion integral time     ...   0.000 sec (  0.000 min) =  0.0%

-------------------------------------------------------------------------------
                                 ORCA SCF
-------------------------------------------------------------------------------

------------
SCF SETTINGS
------------
Hamiltonian:
 Density Functional     Method          .... DFT(GTOs)
 Exchange Functional    Exchange        .... B88
   X-Alpha parameter    XAlpha          ....  0.666667
   Becke's b parameter  XBeta           ....  0.004200
 Correlation Functional Correlation     .... LYP
 LDA part of GGA corr.  LDAOpt          .... VWN-3
 Gradients option       PostSCFGGA      .... off
 Hybrid DFT is turned on
   Fraction HF Exchange ScalHFX         ....  0.530000
   Scaling of DF-GGA-X  ScalDFX         ....  0.470000
   Scaling of DF-GGA-C  ScalDFC         ....  0.730000
   Scaling of DF-LDA-C  ScalLDAC        ....  0.730000
   Perturbative correction              ....  0.270000
 RI-approximation to the Coulomb term is turned on
   Number of auxiliary basis functions  .... 493
   RIJ-COSX (HFX calculated with COS-X)).... on


General Settings:
 Integral files         IntName         .... PbMACl3_mp2_md_10.orca
 Hartree-Fock type      HFTyp           .... RHF
 Total Charge           Charge          ....    0
 Multiplicity           Mult            ....    1
 Number of Electrons    NEL             ....   92
 Basis Dimension        Dim             ....  259
 Nuclear Repulsion      ENuc            ....    567.1470859232 Eh

Convergence Acceleration:
 DIIS                   CNVDIIS         .... on
   Start iteration      DIISMaxIt       ....     0
   Startup error        DIISStart       ....  0.200000
   # of expansion vecs  DIISMaxEq       ....     5
   Bias factor          DIISBfac        ....   1.050
   Max. coefficient     DIISMaxC        ....  10.000
 Newton-Raphson         CNVNR           .... off
 SOSCF                  CNVSOSCF        .... on
   Start iteration      SOSCFMaxIt      ....   150
   Startup grad/error   SOSCFStart      ....  0.001000
 Level Shifting         CNVShift        .... on
   Level shift para.    LevelShift      ....    0.2500
   Turn off err/grad.   ShiftErr        ....    0.0000
 Zerner damping         CNVZerner       .... off
 Static damping         CNVDamp         .... on
   Fraction old density DampFac         ....    0.8500
   Max. Damping (<1)    DampMax         ....    0.9800
   Min. Damping (>=0)   DampMin         ....    0.0000
   Turn off err/grad.   DampErr         ....    0.0300
 Fernandez-Rico         CNVRico         .... off

SCF Procedure:
 Maximum # iterations   MaxIter         ....   125
 SCF integral mode      SCFMode         .... Direct
   Integral package                     .... LIBINT
 Reset frequeny         DirectResetFreq ....    20
 Integral Threshold     Thresh          ....  2.500e-11 Eh
 Primitive CutOff       TCut            ....  2.500e-12 Eh

Convergence Tolerance:
 Convergence Check Mode ConvCheckMode   .... Total+1el-Energy
 Energy Change          TolE            ....  1.000e-08 Eh
 1-El. energy change                    ....  1.000e-05 Eh
 Orbital Gradient       TolG            ....  1.000e-05
 Orbital Rotation angle TolX            ....  1.000e-05
 DIIS Error             TolErr          ....  5.000e-07


Diagonalization of the overlap matrix:
Smallest eigenvalue                        ... 9.623e-04
Time for diagonalization                   ...    0.379 sec
Threshold for overlap eigenvalues          ... 1.000e-08
Number of eigenvalues below threshold      ... 0
Time for construction of square roots      ...    0.014 sec
Total time needed                          ...    0.393 sec

---------------------
INITIAL GUESS: MOREAD
---------------------
Guess MOs are being read from file: previous.gbw
Input geometry compatible with but different from current geometry
Input basis set matches current basis set (good)
MOs were renormalized
MOs were reorthogonalized (Schmidt)
                      ------------------
                      INITIAL GUESS DONE (   0.3 sec)
                      ------------------
-------------------
DFT GRID GENERATION
-------------------

General Integration Accuracy     IntAcc      ...  5.010
Radial Grid Type                 RadialGrid  ... Gauss-Chebyshev
Angular Grid (max. acc.)         AngularGrid ... Lebedev-434
Angular grid pruning method      GridPruning ... 3 (G Style)
Weight generation scheme         WeightScheme... Becke
Basis function cutoff            BFCut       ...    1.0000e-11
Integration weight cutoff        WCut        ...    1.0000e-14
Grids for H and He will be reduced by one unit

# of grid points (after initial pruning)     ... 115882 (   0.1 sec)
# of grid points (after weights+screening)   ... 109361 (   0.5 sec)
nearest neighbour list constructed           ...    0.0 sec
Grid point re-assignment to atoms done       ...    0.0 sec
Grid point division into batches done        ...    1.0 sec
Reduced shell lists constructed in    2.4 sec

Total number of grid points                  ...   109361
Total number of batches                      ...     1715
Average number of points per batch           ...       63
Average number of grid points per atom       ...     9113
Average number of shells per batch           ...    50.28 (49.79%)
Average number of basis functions per batch  ...   131.26 (50.68%)
Average number of large shells per batch     ...    37.74 (75.06%)
Average number of large basis fcns per batch ...    97.45 (74.24%)
Maximum spatial batch extension              ...  31.89, 30.33, 40.48 au
Average spatial batch extension              ...   2.47,  2.35,  2.55 au

Time for grid setup =    2.903 sec

--------------------
COSX GRID GENERATION
--------------------

General Integration Accuracy     IntAcc      ...  3.340
Radial Grid Type                 RadialGrid  ... Gauss-Chebyshev
Angular Grid (max. acc.)         AngularGrid ... Lebedev-50
Angular grid pruning method      GridPruning ... 3 (G Style)
Weight generation scheme         WeightScheme... Becke
Basis function cutoff            BFCut       ...    1.0000e-11
Integration weight cutoff        WCut        ...    1.0000e-14
Grids for H and He will be reduced by one unit

# of grid points (after initial pruning)     ...   6578 (   0.0 sec)
# of grid points (after weights+screening)   ...   6281 (   0.0 sec)
nearest neighbour list constructed           ...    0.0 sec
Grid point re-assignment to atoms done       ...    0.0 sec
Grid point division into batches done        ...    0.0 sec
Reduced shell lists constructed in    0.1 sec

Total number of grid points                  ...     6281
Total number of batches                      ...      104
Average number of points per batch           ...       60
Average number of grid points per atom       ...      523
Average number of shells per batch           ...    61.08 (60.47%)
Average number of basis functions per batch  ...   161.65 (62.41%)
Average number of large shells per batch     ...    46.98 (76.92%)
Average number of large basis fcns per batch ...   123.69 (76.52%)
Maximum spatial batch extension              ...  29.84, 26.55, 44.74 au
Average spatial batch extension              ...   6.43,  6.08,  7.11 au

Overlap Fitting                  UseSFitting ... on
Constructing numerical overlap ... done (      0.1 sec)
Inverting numerical overlap    ... done (      0.0 sec)
Obtaining analytic overlap     ... done (      0.0 sec)
Final contraction and storage  ... done (      0.0 sec)


General Integration Accuracy     IntAcc      ...  3.670
Radial Grid Type                 RadialGrid  ... Gauss-Chebyshev
Angular Grid (max. acc.)         AngularGrid ... Lebedev-50
Angular grid pruning method      GridPruning ... 3 (G Style)
Weight generation scheme         WeightScheme... Becke
Basis function cutoff            BFCut       ...    1.0000e-11
Integration weight cutoff        WCut        ...    1.0000e-14
Grids for H and He will be reduced by one unit

# of grid points (after initial pruning)     ...   8124 (   0.0 sec)
# of grid points (after weights+screening)   ...   7734 (   0.0 sec)
nearest neighbour list constructed           ...    0.0 sec
Grid point re-assignment to atoms done       ...    0.0 sec
Grid point division into batches done        ...    0.0 sec
Reduced shell lists constructed in    0.1 sec

Total number of grid points                  ...     7734
Total number of batches                      ...      128
Average number of points per batch           ...       60
Average number of grid points per atom       ...      644
Average number of shells per batch           ...    60.35 (59.75%)
Average number of basis functions per batch  ...   159.11 (61.43%)
Average number of large shells per batch     ...    46.66 (77.32%)
Average number of large basis fcns per batch ...   121.71 (76.50%)
Maximum spatial batch extension              ...  31.45, 27.43, 46.50 au
Average spatial batch extension              ...   5.87,  5.41,  6.39 au

Overlap Fitting                  UseSFitting ... on
Constructing numerical overlap ... done (      0.1 sec)
Inverting numerical overlap    ... done (      0.0 sec)
Obtaining analytic overlap     ... done (      0.0 sec)
Final contraction and storage  ... done (      0.0 sec)


General Integration Accuracy     IntAcc      ...  4.010
Radial Grid Type                 RadialGrid  ... Gauss-Chebyshev
Angular Grid (max. acc.)         AngularGrid ... Lebedev-110
Angular grid pruning method      GridPruning ... 3 (G Style)
Weight generation scheme         WeightScheme... Becke
Basis function cutoff            BFCut       ...    1.0000e-11
Integration weight cutoff        WCut        ...    1.0000e-14
Grids for H and He will be reduced by one unit

# of grid points (after initial pruning)     ...  15170 (   0.0 sec)
# of grid points (after weights+screening)   ...  14500 (   0.0 sec)
nearest neighbour list constructed           ...    0.0 sec
Grid point re-assignment to atoms done       ...    0.0 sec
Grid point division into batches done        ...    0.0 sec
Reduced shell lists constructed in    0.2 sec

Total number of grid points                  ...    14500
Total number of batches                      ...      234
Average number of points per batch           ...       61
Average number of grid points per atom       ...     1208
Average number of shells per batch           ...    56.93 (56.37%)
Average number of basis functions per batch  ...   150.31 (58.03%)
Average number of large shells per batch     ...    43.37 (76.17%)
Average number of large basis fcns per batch ...   113.58 (75.56%)
Maximum spatial batch extension              ...  34.29, 26.73, 34.93 au
Average spatial batch extension              ...   4.79,  4.55,  5.19 au

Overlap Fitting                  UseSFitting ... on
Constructing numerical overlap ... done (      0.1 sec)
Inverting numerical overlap    ... done (      0.0 sec)
Obtaining analytic overlap     ... done (      0.0 sec)
Final contraction and storage  ... done (      0.0 sec)

Time for X-Grid setup             =    0.926 sec
--------------
SCF ITERATIONS
--------------
ITER       Energy         Delta-E        Max-DP      RMS-DP      [F,P]     Damp
               ***  Starting incremental Fock matrix formation  ***
  0  -1663.5201340405   0.000000000000 0.09190180  0.00215298  0.8662802 0.8500
  1  -1664.2691106637  -0.748976623172 0.08680463  0.00196235  0.7370340 0.8500
                               ***Turning on DIIS***
  2  -1664.9124322907  -0.643321627054 0.07202012  0.00170408  0.6267869 0.8500
  3  -1665.4637935395  -0.551361248763 0.05833819  0.00145843  0.5330149 0.8500
  4  -1665.9420529483  -0.478259408834 0.04867474  0.00126704  0.4531935 0.8500
  5  -1666.3551902954  -0.413137347080 0.04121210  0.00110851  0.3852635 0.8500
  6  -1666.7144614068  -0.359271111408 0.03544998  0.00096606  0.3274940 0.8500
  7  -1667.0275036169  -0.313042210086 0.03062727  0.00083857  0.2783843 0.8500
  8  -1667.2997947937  -0.272291176778 0.02652169  0.00072411  0.2366439 0.8500
  9  -1667.5351003548  -0.235305561104 0.02268713  0.00062252  0.2011634 0.8500
 10  -1667.7377209854  -0.202620630666 0.01924483  0.00053416  0.1710014 0.8500
 11  -1667.9119164293  -0.174195443826 0.01632061  0.00045809  0.1453607 0.8500
 12  -1668.0614973772  -0.149580947975 0.01387872  0.00039277  0.1235638 0.8500
 13  -1668.1897769841  -0.128279606836 0.01182507  0.00033656  0.1050347 0.8500
 14  -1668.2996350868  -0.109858102732 0.01044712  0.00028815  0.0892837 0.8500
 15  -1668.3936029903  -0.093967903444 0.00922183  0.00024655  0.0758943 0.8500
 16  -1668.4739031889  -0.080300198629 0.00811271  0.00021089  0.0645125 0.8500
 17  -1668.5424718894  -0.068568700530 0.00710835  0.00018036  0.0548374 0.8500
 18  -1668.6009852710  -0.058513381573 0.00620953  0.00015423  0.0466131 0.8500
 19  -1668.6508895027  -0.049904231662 0.00541670  0.00013186  0.0396221 0.8500
               *** Restarting incremental Fock matrix formation ***
                                   *** Resetting DIIS ***
 20  -1668.6962791903  -0.045389687622 0.00360784  0.00010664  0.0336806 0.8500
 21  -1668.7325551866  -0.036275996314 0.02113456  0.00060236  0.0286309 0.0000
 22  -1668.9394093655  -0.206854178924 0.00485072  0.00006653  0.0044334 0.0000
 23  -1668.9394980114  -0.000088645913 0.00192101  0.00002991  0.0026363 0.0000
                      *** Initiating the SOSCF procedure ***
                           *** Shutting down DIIS ***
                      *** Re-Reading the Fockian *** 
                      *** Removing any level shift *** 
ITER      Energy       Delta-E        Grad      Rot      Max-DP    RMS-DP
 24  -1668.93952351  -0.0000254997  0.000526  0.000526  0.001625  0.000017
               *** Restarting incremental Fock matrix formation ***
 25  -1668.93670337   0.0028201455  0.000368  0.001524  0.002068  0.000031
 26  -1668.93670492  -0.0000015542  0.000105  0.000812  0.001214  0.000013
 27  -1668.93670456   0.0000003551  0.000071  0.000173  0.000244  0.000004
 28  -1668.93670505  -0.0000004866  0.000023  0.000049  0.000091  0.000001
 29  -1668.93670516  -0.0000001044  0.000005  0.000010  0.000008  0.000000
                  ***Gradient check signals convergence***
              ***Rediagonalizing the Fockian in SOSCF/NRSCF***

               *****************************************************
               *                     SUCCESS                       *
               *           SCF CONVERGED AFTER  30 CYCLES          *
               *****************************************************

Old exchange energy                            =    -59.255587266 Eh
New exchange energy                            =    -59.259057333 Eh
Exchange energy change after final integration =     -0.003470068 Eh
Total energy after final integration           =  -1668.940175225 Eh
Final COS-X integration done in                =    22.812 sec

----------------
TOTAL SCF ENERGY
----------------

Total Energy       :        -1668.94017522 Eh          -45414.17098 eV

Components:
Nuclear Repulsion  :          567.14708592 Eh           15432.85680 eV
Electronic Energy  :        -2236.08726115 Eh          -60847.02778 eV

One Electron Energy:        -3505.48208495 Eh          -95389.01702 eV
Two Electron Energy:         1269.39482380 Eh           34541.98924 eV

Virial components:
Potential Energy   :        -3207.23223757 Eh          -87273.22607 eV
Kinetic Energy     :         1538.29206234 Eh           41859.05509 eV
Virial Ratio       :            2.08493063


DFT components:
N(Alpha)           :       46.000007396925 electrons
N(Beta)            :       46.000007396925 electrons
N(Total)           :       92.000014793849 electrons
E(X)               :      -52.625473180030 Eh       
E(C)               :       -2.610480428553 Eh       
E(XC)              :      -55.235953608582 Eh       

---------------
SCF CONVERGENCE
---------------

  Last Energy change         ...   -1.2253e-09  Tolerance :   1.0000e-08
  Last MAX-Density change    ...    1.0658e-14  Tolerance :   1.0000e-07
  Last RMS-Density change    ...    1.3042e-16  Tolerance :   5.0000e-09
  Last Orbital Gradient      ...    1.2792e-06  Tolerance :   1.0000e-05
  Last Orbital Rotation      ...    8.6723e-06  Tolerance :   1.0000e-05

             **** THE GBW FILE WAS UPDATED (PbMACl3_mp2_md_10.orca.gbw) ****
             **** DENSITY FILE WAS UPDATED (PbMACl3_mp2_md_10.orca.scfp.tmp) ****
             **** ENERGY FILE WAS UPDATED (PbMACl3_mp2_md_10.orca.en.tmp) ****
----------------
ORBITAL ENERGIES
----------------

  NO   OCC          E(Eh)            E(eV) 
   0   2.0000    -102.871331     -2799.2712 
   1   2.0000    -102.826157     -2798.0420 
   2   2.0000    -102.807212     -2797.5265 
   3   2.0000     -14.995759      -408.0553 
   4   2.0000     -10.735463      -292.1268 
   5   2.0000      -9.884154      -268.9615 
   6   2.0000      -9.833790      -267.5910 
   7   2.0000      -9.813755      -267.0459 
   8   2.0000      -7.520844      -204.6526 
   9   2.0000      -7.519104      -204.6052 
  10   2.0000      -7.518845      -204.5982 
  11   2.0000      -7.470849      -203.2921 
  12   2.0000      -7.468965      -203.2409 
  13   2.0000      -7.468840      -203.2375 
  14   2.0000      -7.450855      -202.7481 
  15   2.0000      -7.449053      -202.6990 
  16   2.0000      -7.448932      -202.6957 
  17   2.0000      -5.776213      -157.1788 
  18   2.0000      -3.549221       -96.5792 
  19   2.0000      -3.546896       -96.5159 
  20   2.0000      -3.544671       -96.4554 
  21   2.0000      -1.217312       -33.1247 
  22   2.0000      -0.965409       -26.2701 
  23   2.0000      -0.947550       -25.7841 
  24   2.0000      -0.941261       -25.6130 
  25   2.0000      -0.936661       -25.4878 
  26   2.0000      -0.936432       -25.4816 
  27   2.0000      -0.913997       -24.8711 
  28   2.0000      -0.887318       -24.1452 
  29   2.0000      -0.842828       -22.9345 
  30   2.0000      -0.819929       -22.3114 
  31   2.0000      -0.744164       -20.2497 
  32   2.0000      -0.729552       -19.8521 
  33   2.0000      -0.636699       -17.3255 
  34   2.0000      -0.564995       -15.3743 
  35   2.0000      -0.538186       -14.6448 
  36   2.0000      -0.521267       -14.1844 
  37   2.0000      -0.401369       -10.9218 
  38   2.0000      -0.390867       -10.6360 
  39   2.0000      -0.385274       -10.4838 
  40   2.0000      -0.348046        -9.4708 
  41   2.0000      -0.326883        -8.8949 
  42   2.0000      -0.321589        -8.7509 
  43   2.0000      -0.302362        -8.2277 
  44   2.0000      -0.300737        -8.1835 
  45   2.0000      -0.245357        -6.6765 
  46   0.0000      -0.020937        -0.5697 
  47   0.0000      -0.014578        -0.3967 
  48   0.0000       0.038361         1.0439 
  49   0.0000       0.050886         1.3847 
  50   0.0000       0.056558         1.5390 
  51   0.0000       0.070128         1.9083 
  52   0.0000       0.087873         2.3911 
  53   0.0000       0.107082         2.9139 
  54   0.0000       0.133579         3.6349 
  55   0.0000       0.138182         3.7601 
  56   0.0000       0.158619         4.3163 
  57   0.0000       0.166394         4.5278 
  58   0.0000       0.179270         4.8782 
  59   0.0000       0.202333         5.5058 
  60   0.0000       0.213177         5.8009 
  61   0.0000       0.220498         6.0001 
  62   0.0000       0.235546         6.4095 
  63   0.0000       0.252646         6.8748 
  64   0.0000       0.277030         7.5384 
  65   0.0000       0.289949         7.8899 
  66   0.0000       0.305086         8.3018 
  67   0.0000       0.324802         8.8383 
  68   0.0000       0.340097         9.2545 
  69   0.0000       0.356987         9.7141 
  70   0.0000       0.393253        10.7010 
  71   0.0000       0.405186        11.0257 
  72   0.0000       0.415469        11.3055 
  73   0.0000       0.420574        11.4444 
  74   0.0000       0.433452        11.7948 
  75   0.0000       0.445454        12.1214 
  76   0.0000       0.456383        12.4188 
  77   0.0000       0.465687        12.6720 
  78   0.0000       0.474919        12.9232 
  79   0.0000       0.478255        13.0140 
  80   0.0000       0.482130        13.1194 
  81   0.0000       0.495122        13.4730 
  82   0.0000       0.501133        13.6365 
  83   0.0000       0.504289        13.7224 
  84   0.0000       0.508335        13.8325 
  85   0.0000       0.519600        14.1390 
  86   0.0000       0.535314        14.5666 
  87   0.0000       0.548067        14.9137 
  88   0.0000       0.557914        15.1816 
  89   0.0000       0.568935        15.4815 
  90   0.0000       0.577999        15.7281 
  91   0.0000       0.584787        15.9129 
  92   0.0000       0.606084        16.4924 
  93   0.0000       0.616927        16.7874 
  94   0.0000       0.625334        17.0162 
  95   0.0000       0.643540        17.5116 
  96   0.0000       0.645078        17.5535 
  97   0.0000       0.657890        17.9021 
  98   0.0000       0.662094        18.0165 
  99   0.0000       0.696115        18.9423 
 100   0.0000       0.727230        19.7889 
 101   0.0000       0.733367        19.9559 
 102   0.0000       0.749019        20.3818 
 103   0.0000       0.761529        20.7222 
 104   0.0000       0.798289        21.7225 
 105   0.0000       0.829635        22.5755 
 106   0.0000       0.846864        23.0443 
 107   0.0000       0.863790        23.5049 
 108   0.0000       0.877215        23.8702 
 109   0.0000       0.892338        24.2817 
 110   0.0000       0.908865        24.7315 
 111   0.0000       0.919997        25.0344 
 112   0.0000       0.941059        25.6075 
 113   0.0000       0.941669        25.6241 
 114   0.0000       0.955045        25.9881 
 115   0.0000       0.969728        26.3876 
 116   0.0000       0.996932        27.1279 
 117   0.0000       1.025224        27.8978 
 118   0.0000       1.080331        29.3973 
 119   0.0000       1.098425        29.8897 
 120   0.0000       1.103142        30.0180 
 121   0.0000       1.125671        30.6311 
 122   0.0000       1.152830        31.3701 
 123   0.0000       1.183597        32.2073 
 124   0.0000       1.243294        33.8318 
 125   0.0000       1.267651        34.4945 
 126   0.0000       1.297138        35.2969 
 127   0.0000       1.314475        35.7687 
 128   0.0000       1.344482        36.5852 
 129   0.0000       1.352547        36.8047 
 130   0.0000       1.368607        37.2417 
 131   0.0000       1.520055        41.3628 
 132   0.0000       1.530376        41.6437 
 133   0.0000       1.556122        42.3442 
 134   0.0000       1.592357        43.3302 
 135   0.0000       1.659971        45.1701 
 136   0.0000       1.687627        45.9227 
 137   0.0000       1.744478        47.4696 
 138   0.0000       1.793650        48.8077 
 139   0.0000       1.869394        50.8688 
 140   0.0000       1.887381        51.3583 
 141   0.0000       1.896795        51.6144 
 142   0.0000       1.935926        52.6792 
 143   0.0000       1.942498        52.8581 
 144   0.0000       1.950466        53.0749 
 145   0.0000       1.957188        53.2578 
 146   0.0000       1.963922        53.4410 
 147   0.0000       1.975253        53.7494 
 148   0.0000       1.977820        53.8192 
 149   0.0000       1.989714        54.1429 
 150   0.0000       2.010021        54.6955 
 151   0.0000       2.012739        54.7694 
 152   0.0000       2.024054        55.0773 
 153   0.0000       2.029916        55.2368 
 154   0.0000       2.048317        55.7375 
 155   0.0000       2.080333        56.6087 
 156   0.0000       2.086746        56.7832 
 157   0.0000       2.090667        56.8899 
 158   0.0000       2.133988        58.0688 
 159   0.0000       2.137196        58.1561 
 160   0.0000       2.142964        58.3130 
 161   0.0000       2.147034        58.4238 
 162   0.0000       2.165860        58.9361 
 163   0.0000       2.170357        59.0584 
 164   0.0000       2.191102        59.6229 
 165   0.0000       2.199400        59.8487 
 166   0.0000       2.210532        60.1516 
 167   0.0000       2.237005        60.8720 
 168   0.0000       2.243715        61.0546 
 169   0.0000       2.255729        61.3815 
 170   0.0000       2.267773        61.7092 
 171   0.0000       2.278519        62.0016 
 172   0.0000       2.280051        62.0433 
 173   0.0000       2.283359        62.1334 
 174   0.0000       2.284594        62.1670 
 175   0.0000       2.302588        62.6566 
 176   0.0000       2.303351        62.6774 
 177   0.0000       2.318307        63.0843 
 178   0.0000       2.319719        63.1228 
 179   0.0000       2.324176        63.2441 
 180   0.0000       2.348091        63.8948 
 181   0.0000       2.354548        64.0705 
 182   0.0000       2.360989        64.2458 
 183   0.0000       2.381114        64.7934 
 184   0.0000       2.403749        65.4093 
 185   0.0000       2.414789        65.7098 
 186   0.0000       2.423017        65.9336 
 187   0.0000       2.432153        66.1823 
 188   0.0000       2.437135        66.3178 
 189   0.0000       2.443791        66.4989 
 190   0.0000       2.457968        66.8847 
 191   0.0000       2.465122        67.0794 
 192   0.0000       2.480552        67.4992 
 193   0.0000       2.489385        67.7396 
 194   0.0000       2.496015        67.9200 
 195   0.0000       2.522003        68.6272 
 196   0.0000       2.530206        68.8504 
 197   0.0000       2.564696        69.7889 
 198   0.0000       2.582656        70.2776 
 199   0.0000       2.600349        70.7591 
 200   0.0000       2.644043        71.9481 
 201   0.0000       2.667503        72.5865 
 202   0.0000       2.695663        73.3527 
 203   0.0000       2.710149        73.7469 
 204   0.0000       2.752035        74.8867 
 205   0.0000       2.759073        75.0782 
 206   0.0000       2.828264        76.9610 
 207   0.0000       2.832517        77.0767 
 208   0.0000       2.848608        77.5146 
 209   0.0000       2.889913        78.6385 
 210   0.0000       2.994490        81.4842 
 211   0.0000       3.033555        82.5472 
 212   0.0000       3.060263        83.2740 
 213   0.0000       3.128457        85.1297 
 214   0.0000       3.196852        86.9908 
 215   0.0000       3.279115        89.2293 
 216   0.0000       3.356794        91.3430 
 217   0.0000       3.502446        95.3064 
 218   0.0000       3.506177        95.4079 
 219   0.0000       3.557570        96.8064 
 220   0.0000       3.593594        97.7867 
 221   0.0000       3.648856        99.2904 
 222   0.0000       3.862562       105.1057 
 223   0.0000       3.881150       105.6115 
 224   0.0000       3.942638       107.2846 
 225   0.0000       4.027074       109.5823 
 226   0.0000       4.176385       113.6452 
 227   0.0000       4.400111       119.7331 
 228   0.0000       4.546657       123.7208 
 229   0.0000       4.818851       131.1276 
 230   0.0000       4.847033       131.8945 
 231   0.0000       4.974121       135.3527 
 232   0.0000       5.000453       136.0693 
 233   0.0000       5.021121       136.6316 
 234   0.0000       5.153454       140.2326 
 235   0.0000       5.207313       141.6982 
 236   0.0000       5.290012       143.9485 
 237   0.0000       5.442728       148.1042 
 238   0.0000       5.669327       154.2702 
 239   0.0000       5.976207       162.6209 
 240   0.0000      11.053331       300.7764 
 241   0.0000      11.078537       301.4623 
 242   0.0000      11.093586       301.8718 
 243   0.0000      11.098374       302.0021 
 244   0.0000      11.108573       302.2796 
 245   0.0000      11.143962       303.2426 
 246   0.0000      11.202609       304.8385 
 247   0.0000      11.233544       305.6803 
 248   0.0000      11.321586       308.0760 
 249   0.0000      22.655063       616.4756 
 250   0.0000      25.134797       683.9526 
 251   0.0000      25.228211       686.4945 
 252   0.0000      25.433961       692.0933 
 253   0.0000      32.388280       881.3299 
 254   0.0000      35.589587       968.4419 
 255   0.0000      35.757622       973.0144 
 256   0.0000      35.849093       975.5034 
 257   0.0000      35.883732       976.4460 
 258   0.0000     123.637024      3364.3345 

                    ********************************
                    * MULLIKEN POPULATION ANALYSIS *
                    ********************************

-----------------------
MULLIKEN ATOMIC CHARGES
-----------------------
   0 C :   -0.280997
   1 N :   -0.252156
   2 H :    0.301095
   3 H :    0.291298
   4 H :    0.246415
   5 H :    0.174507
   6 H :    0.148209
   7 H :    0.170075
   8 Pb:    0.814864
   9 Cl:   -0.559621
  10 Cl:   -0.533816
  11 Cl:   -0.519873
Sum of atomic charges:    0.0000000

--------------------------------
MULLIKEN REDUCED ORBITAL CHARGES
--------------------------------
  0 C s       :     3.279284  s :     3.279284
      pz      :     1.049822  p :     2.924112
      px      :     0.812732
      py      :     1.061557
      dz2     :     0.011111  d :     0.070594
      dxz     :     0.017853
      dyz     :     0.011276
      dx2y2   :     0.021141
      dxy     :     0.009213
      f0      :     0.000375  f :     0.007007
      f+1     :     0.001309
      f-1     :     0.000717
      f+2     :     0.001377
      f-2     :     0.000764
      f+3     :     0.001182
      f-3     :     0.001283
  1 N s       :     3.412038  s :     3.412038
      pz      :     1.312054  p :     3.782447
      px      :     1.228773
      py      :     1.241620
      dz2     :     0.007401  d :     0.055066
      dxz     :     0.017424
      dyz     :     0.006539
      dx2y2   :     0.016412
      dxy     :     0.007290
      f0      :     0.000074  f :     0.002605
      f+1     :     0.000659
      f-1     :     0.000334
      f+2     :     0.000467
      f-2     :     0.000283
      f+3     :     0.000320
      f-3     :     0.000469
  2 H s       :     0.668484  s :     0.668484
      pz      :     0.013186  p :     0.030422
      px      :     0.011769
      py      :     0.005467
  3 H s       :     0.642928  s :     0.642928
      pz      :     0.027882  p :     0.065774
      px      :     0.011658
      py      :     0.026234
  4 H s       :     0.713537  s :     0.713537
      pz      :     0.009396  p :     0.040048
      px      :     0.008226
      py      :     0.022425
  5 H s       :     0.803345  s :     0.803345
      pz      :     0.004129  p :     0.022149
      px      :     0.003039
      py      :     0.014981
  6 H s       :     0.831475  s :     0.831475
      pz      :     0.011272  p :     0.020316
      px      :     0.003394
      py      :     0.005651
  7 H s       :     0.807460  s :     0.807460
      pz      :     0.009362  p :     0.022464
      px      :     0.008664
      py      :     0.004438
  8 Pbs       :     3.919205  s :     3.919205
      pz      :     2.337036  p :     7.022355
      px      :     2.363921
      py      :     2.321398
      dz2     :     2.028816  d :    10.174311
      dxz     :     2.039435
      dyz     :     2.026429
      dx2y2   :     2.042128
      dxy     :     2.037503
      f0      :     0.005187  f :     0.069264
      f+1     :     0.005430
      f-1     :     0.007167
      f+2     :     0.012679
      f-2     :     0.009201
      f+3     :     0.013705
      f-3     :     0.015894
  9 Cls       :     5.955053  s :     5.955053
      pz      :     3.907709  p :    11.588812
      px      :     3.834816
      py      :     3.846287
      dz2     :     0.001615  d :     0.015047
      dxz     :     0.002748
      dyz     :     0.003704
      dx2y2   :     0.001889
      dxy     :     0.005092
      f0      :     0.000084  f :     0.000708
      f+1     :     0.000049
      f-1     :     0.000063
      f+2     :     0.000056
      f-2     :     0.000217
      f+3     :     0.000132
      f-3     :     0.000108
 10 Cls       :     5.947144  s :     5.947144
      pz      :     3.911339  p :    11.553527
      px      :     3.933613
      py      :     3.708574
      dz2     :     0.003200  d :     0.030776
      dxz     :     0.002324
      dyz     :     0.012415
      dx2y2   :     0.009972
      dxy     :     0.002866
      f0      :     0.000301  f :     0.002368
      f+1     :     0.000024
      f-1     :     0.000239
      f+2     :     0.000681
      f-2     :     0.000236
      f+3     :     0.000431
      f-3     :     0.000456
 11 Cls       :     5.949783  s :     5.949783
      pz      :     3.874848  p :    11.548965
      px      :     3.765748
      py      :     3.908369
      dz2     :     0.002695  d :     0.020053
      dxz     :     0.004830
      dyz     :     0.000771
      dx2y2   :     0.006938
      dxy     :     0.004819
      f0      :     0.000106  f :     0.001071
      f+1     :     0.000175
      f-1     :     0.000021
      f+2     :     0.000172
      f-2     :     0.000101
      f+3     :     0.000237
      f-3     :     0.000259


                     *******************************
                     * LOEWDIN POPULATION ANALYSIS *
                     *******************************

----------------------
LOEWDIN ATOMIC CHARGES
----------------------
   0 C :   -0.316796
   1 N :    0.126561
   2 H :    0.228326
   3 H :    0.046411
   4 H :    0.151852
   5 H :    0.135792
   6 H :    0.133098
   7 H :    0.134269
   8 Pb:   -0.118072
   9 Cl:   -0.280086
  10 Cl:   -0.058979
  11 Cl:   -0.182377

-------------------------------
LOEWDIN REDUCED ORBITAL CHARGES
-------------------------------
  0 C s       :     2.852820  s :     2.852820
      pz      :     1.070156  p :     3.093192
      px      :     0.945413
      py      :     1.077623
      dz2     :     0.047299  d :     0.326558
      dxz     :     0.091073
      dyz     :     0.041575
      dx2y2   :     0.094974
      dxy     :     0.051637
      f0      :     0.003542  f :     0.044227
      f+1     :     0.008019
      f-1     :     0.004616
      f+2     :     0.005386
      f-2     :     0.005451
      f+3     :     0.008818
      f-3     :     0.008394
  1 N s       :     2.956582  s :     2.956582
      pz      :     1.231775  p :     3.705934
      px      :     1.240558
      py      :     1.233601
      dz2     :     0.026464  d :     0.197541
      dxz     :     0.057763
      dyz     :     0.024610
      dx2y2   :     0.061530
      dxy     :     0.027174
      f0      :     0.000858  f :     0.013381
      f+1     :     0.002874
      f-1     :     0.001866
      f+2     :     0.001437
      f-2     :     0.001428
      f+3     :     0.002562
      f-3     :     0.002354
  2 H s       :     0.683387  s :     0.683387
      pz      :     0.040627  p :     0.088287
      px      :     0.032339
      py      :     0.015321
  3 H s       :     0.713625  s :     0.713625
      pz      :     0.103339  p :     0.239965
      px      :     0.036301
      py      :     0.100325
  4 H s       :     0.720690  s :     0.720690
      pz      :     0.032363  p :     0.127458
      px      :     0.029464
      py      :     0.065631
  5 H s       :     0.803093  s :     0.803093
      pz      :     0.011977  p :     0.061115
      px      :     0.009182
      py      :     0.039957
  6 H s       :     0.810999  s :     0.810999
      pz      :     0.028788  p :     0.055904
      px      :     0.009831
      py      :     0.017285
  7 H s       :     0.802716  s :     0.802716
      pz      :     0.027101  p :     0.063015
      px      :     0.022667
      py      :     0.013247
  8 Pbs       :     3.701844  s :     3.701844
      pz      :     2.453036  p :     7.492854
      px      :     2.542673
      py      :     2.497145
      dz2     :     2.098365  d :    10.707121
      dxz     :     2.132530
      dyz     :     2.134582
      dx2y2   :     2.180344
      dxy     :     2.161300
      f0      :     0.019763  f :     0.216252
      f+1     :     0.014420
      f-1     :     0.017918
      f+2     :     0.042815
      f-2     :     0.028872
      f+3     :     0.040576
      f-3     :     0.051888
  9 Cls       :     5.780031  s :     5.780031
      pz      :     3.866076  p :    11.470720
      px      :     3.795662
      py      :     3.808982
      dz2     :     0.001352  d :     0.027846
      dxz     :     0.005837
      dyz     :     0.008852
      dx2y2   :     0.001965
      dxy     :     0.009839
      f0      :     0.000239  f :     0.001489
      f+1     :     0.000048
      f-1     :     0.000064
      f+2     :     0.000074
      f-2     :     0.000642
      f+3     :     0.000289
      f-3     :     0.000134
 10 Cls       :     5.658060  s :     5.658060
      pz      :     3.841632  p :    11.318710
      px      :     3.861215
      py      :     3.615863
      dz2     :     0.004009  d :     0.076338
      dxz     :     0.002596
      dyz     :     0.036230
      dx2y2   :     0.027367
      dxy     :     0.006135
      f0      :     0.000976  f :     0.005872
      f+1     :     0.000023
      f-1     :     0.000295
      f+2     :     0.002237
      f-2     :     0.000550
      f+3     :     0.000735
      f-3     :     0.001055
 11 Cls       :     5.734622  s :     5.734622
      pz      :     3.819357  p :    11.405555
      px      :     3.732795
      py      :     3.853403
      dz2     :     0.006965  d :     0.039703
      dxz     :     0.006086
      dyz     :     0.000807
      dx2y2   :     0.016555
      dxy     :     0.009291
      f0      :     0.000226  f :     0.002496
      f+1     :     0.000453
      f-1     :     0.000049
      f+2     :     0.000313
      f-2     :     0.000158
      f+3     :     0.000553
      f-3     :     0.000744


                      *****************************
                      * MAYER POPULATION ANALYSIS *
                      *****************************

  NA   - Mulliken gross atomic population
  ZA   - Total nuclear charge
  QA   - Mulliken gross atomic charge
  VA   - Mayer's total valence
  BVA  - Mayer's bonded valence
  FA   - Mayer's free valence

  ATOM       NA         ZA         QA         VA         BVA        FA
  0 C      6.2810     6.0000    -0.2810     3.8091     3.8091    -0.0000
  1 N      7.2522     7.0000    -0.2522     3.3593     3.3593    -0.0000
  2 H      0.6989     1.0000     0.3011     0.9063     0.9063    -0.0000
  3 H      0.7087     1.0000     0.2913     1.0252     1.0252     0.0000
  4 H      0.7536     1.0000     0.2464     0.9328     0.9328    -0.0000
  5 H      0.8255     1.0000     0.1745     0.9818     0.9818    -0.0000
  6 H      0.8518     1.0000     0.1482     0.9634     0.9634     0.0000
  7 H      0.8299     1.0000     0.1701     0.9679     0.9679    -0.0000
  8 Pb    21.1851    22.0000     0.8149     2.0114     2.0114     0.0000
  9 Cl    17.5596    17.0000    -0.5596     0.7617     0.7617    -0.0000
 10 Cl    17.5338    17.0000    -0.5338     0.7861     0.7861     0.0000
 11 Cl    17.5199    17.0000    -0.5199     0.8248     0.8248    -0.0000

  Mayer bond orders larger than 0.1
B(  0-C ,  1-N ) :   0.9049 B(  0-C ,  5-H ) :   0.9605 B(  0-C ,  6-H ) :   0.9601 
B(  0-C ,  7-H ) :   0.9674 B(  1-N ,  2-H ) :   0.8886 B(  1-N ,  3-H ) :   0.6938 
B(  1-N ,  4-H ) :   0.9199 B(  3-H , 10-Cl) :   0.3045 B(  8-Pb,  9-Cl) :   0.7383 
B(  8-Pb, 10-Cl) :   0.4424 B(  8-Pb, 11-Cl) :   0.7964 

-------
TIMINGS
-------

Total SCF time: 0 days 0 hours 6 min 57 sec 

Total time                  ....     417.051 sec
Sum of individual times     ....     393.497 sec  ( 94.4%)

Fock matrix formation       ....     388.142 sec  ( 93.1%)
  Coulomb formation         ....     323.222 sec  ( 83.3% of F)
  Split-RI-J                ....      22.835 sec  (  5.9% of F)
  Chain of spheres X        ....     323.128 sec  ( 83.2% of F)
  COS-X 1 center corr.      ....       0.000 sec  (  0.0% of F)
  XC integration            ....      64.935 sec  ( 16.7% of F)
    Basis function eval.    ....      20.083 sec  ( 30.9% of XC)
    Density eval.           ....      16.930 sec  ( 26.1% of XC)
    XC-Functional eval.     ....       4.245 sec  (  6.5% of XC)
    XC-Potential eval.      ....      22.627 sec  ( 34.8% of XC)
Diagonalization             ....       0.783 sec  (  0.2%)
Density matrix formation    ....       0.066 sec  (  0.0%)
Population analysis         ....       0.067 sec  (  0.0%)
Initial guess               ....       0.272 sec  (  0.1%)
Orbital Transformation      ....       0.000 sec  (  0.0%)
Orbital Orthonormalization  ....       0.265 sec  (  0.1%)
DIIS solution               ....       0.223 sec  (  0.1%)
SOSCF solution              ....       0.114 sec  (  0.0%)
Grid generation             ....       3.829 sec  (  0.9%)

------------------------------------------------------------------------------
                              ORCA MP2 CALCULATION
------------------------------------------------------------------------------


----------------------
RI-MP2 ENERGY+GRADIENT
----------------------
Dimension of the basis                    ...  259
Memory devoted to MP2                     ... 1000 MB   
Data format for buffers                   ... DOUBLE
Compression type for matrix containers    ... UNCOMPRESSED
Overall scaling of the MP2 energy         ...   2.700e-01 Eh
Calculating two index integrals           ... done (    0.019 sec)
Cholesky decomposition of the V-matrix    ... done
Cholesky decomposition of V**-1           ... done (    0.044 sec)

-----------------
RI-TRANSFORMATION (AUX index driven)
-----------------

Dimension of the orbital-basis         ... 259
Dimension of the aux-basis             ... 493
Transformation of internal MOs         ...    0-  45
Transformation of internal/external MOs...    0-  45 to   46- 258
Number Format for Storage              ... Double (8 Byte)
Integral mode                          ... Direct

First Phase: integral generation and transformation of MO indices
  Aux angular momentum 0               ... done (    0.598 sec)
  Aux angular momentum 1               ... done (    0.316 sec)
  Aux angular momentum 2               ... done (    0.375 sec)
  Aux angular momentum 3               ... done (    0.216 sec)
  Aux angular momentum 4               ... done (    0.189 sec)
Closing buffer VIJ ( 0.00 GB; CompressionRatio= 1.95)
Closing buffer VIA ( 0.04 GB; CompressionRatio= 1.00)
  Phase 1 completed in     1.870 sec
Second Phase: sorting and transformation of aux index

IJ-Transformation
Memory available                       ... 990 MB 
Max. # MO pairs treated in a batch     ... 46    
# of internal orbitals                 ... 46
# batches for internal orbitals        ... 1
Closing buffer IJV ( 0.00 GB; CompressionRatio= 1.00)
(ij|v) transformation done in     0.110 sec

IA-Transformation
Memory available                       ... 990 MB 
Max. # MO pairs treated in a batch     ... 46    
# of internal orbitals                 ... 46
# batches for internal orbitals        ... 1
Closing buffer IAV ( 0.04 GB; CompressionRatio= 1.00)
(ia|v) transformation done in     0.473 sec

  Phase 2 completed in     0.600 sec
RI-Integral transformation completed in     2.470 sec
Opening buffers                              ... done

Starting loop over batches of integrals:

Operator 0  - window                       ... (  0- 45)x( 46-258)
Operator 0  - Memory available             ...  1000 MB
Operator 0  - Memory needed per MO         ...   1.6 MB
Operator 0  - Number of orbitals per batch ... 46
Operator 0  - Number of batches            ... 1

OPERATOR  0   PASS   0:  MOs     0 ...   45
  Reading integrals       ... ok
  Internal MO   2
  Internal MO   5
  Internal MO   8
  Internal MO  11
  Internal MO  14
  Internal MO  17
  Internal MO  20
  Internal MO  23
  Internal MO  26
  Internal MO  29
  Internal MO  32
  Internal MO  35
  Internal MO  38
  Internal MO  41
  Internal MO  44
Closing buffer GIPV ( 0.04 GB; CompressionRatio= 1.00)
Time spent in pair loops =    50.612 sec

-----------------------------------------------
 RI-MP2 CORRELATION ENERGY:     -0.579516131 Eh
-----------------------------------------------


---------------------
MP2 DENSITY FORMATION
---------------------

Completing the external part of the density      ... done
Storing the unrelaxed density                    ... done

Calculating the xc-kernel                        ... done
Calculating G(D)                                 ... done
Completing the Lagrangian                        ... done
Solving the Z-vector equations                   ... 

------------------------------------------------------------------------------
                           ORCA CP-SCF CALCULATION
------------------------------------------------------------------------------

Input orbitals are from        ... PbMACl3_mp2_md_10.orca.gbw
Input Perturbation             ... PbMACl3_mp2_md_10.orca.pin.tmp
Wavefunction output            ... PbMACl3_mp2_md_10.orca.pout.tmp
Perturbation mode              ... Real perturbation
Solver                         ... DIIS
   MaxDIIS                     ... 20
   Levelshift                  ...    3.000e-01 Eh
Max. number of iterations      ... 128
Convergence tolerance          ... 1.000e-08
Integral handling              ... Direct
COSX GridX                     ... 1
Number of perturbations        ... 1
Number of operators            ... 1
Orbital ranges used for CP-SCF:
 Operator 0:  Orbitals   0... 45  to  46...258
DFT calculation                         ... on
Exchange functional (SCF)               ... B88
Exchange functional (CP-SCF)            ... B88
   X-Alpha parameter    XAlpha (SCF)    ...  0.666667
   X-Alpha parameter    XAlpha (CP-SCF) ...  0.666667
   Becke's b parameter  XBeta (SCF)     ...  0.004200
   Becke's b parameter  XBeta (CP-SCF)  ...  0.004200
Correlation functional (SCF)            ... LYP
Correlation functional (CP-SCF)         ... LYP
 LDA part of GGA corr.  LDAOpt (SCF)    ... VWN-3
 LDA part of GGA corr.  LDAOpt (CP-SCF) ... VWN-3
Hybrid DFT                              ... on
   Exchange mixing (SCF)                ...  0.530
   Exchange mixing (CP-SCF)             ...  0.530
   GGA exch. scaling(SCF)               ...  0.470
   GGA exch. scaling (CP-SCF)           ...  0.470
   GGA corr. scaling (SCF)              ...  0.730
   GGA corr. scaling (CP-SCF)           ...  0.730
The RIJCOSX approximation is active
Variables per vector in CP-SCF ... 9798
Number of vectors sought       ... 1
Calculating the xc-kernel      ... done

Solving the CP-SCF equations by a DIIS algorithm

-----------------
CP-SCF ITERATIONS
-----------------
  Iteration   0: MaxR=  0.082753473
  Iteration   1: MaxR=  0.034731177
  Iteration   2: MaxR=  0.012002522
  Iteration   3: MaxR=  0.005526260
  Iteration   4: MaxR=  0.003228877
  Iteration   5: MaxR=  0.001444049
  Iteration   6: MaxR=  0.000617818
  Iteration   7: MaxR=  0.000196142
  Iteration   8: MaxR=  0.000077113
  Iteration   9: MaxR=  0.000028399
  Iteration  10: MaxR=  0.000012252
  Iteration  11: MaxR=  0.000004695
  Iteration  12: MaxR=  0.000002082
  Iteration  13: MaxR=  0.000000794
  Iteration  14: MaxR=  0.000000280
  Iteration  15: MaxR=  0.000000106
  Iteration  16: MaxR=  0.000000035
  Iteration  17: MaxR=  0.000000015
  Iteration  18: MaxR=  0.000000006
                              *** THE CP-SCF HAS CONVERGED *** 
done
Finalizing the relaxed density                   ... done
Transforming P to the AO basis                   ... done
Storing the relaxed density                      ... done

------------------------------------
ENERGY WEIGHTED DENSITY FINALIZATION
------------------------------------

Gathering the parts of the W-matrix              ... done
Forming the Z-density                            ... done
Transforming Z to the AO basis                   ... done
Calculating G(Z)                                 ... done
Finalizing the W-matrix                          ... done
Transforming W to the AO basis and storing       ... done
Entering the RIJONX and RIJCOSX sections
Starting the three-index derivative integrals:
Operator 0  - Memory available             ...  1000 MB
Operator 0  - Memory needed per MO         ...   1.0 MB
Operator 0  - Number of orbitals per batch ... 46
Operator 0  - Number of batches            ... 1

OPERATOR  0   PASS   0:  MOs     0 ...   45

----------------------------------
MP2 DERIVATIVE INTEGRAL GENERATION
----------------------------------


Input Correlated Electron Density   ... PbMACl3_mp2_md_10.orca.pmp2re
Input Energy Weighted Density       ... PbMACl3_mp2_md_10.orca.wmp2.tmp
Input SCF Electron Density          ... PbMACl3_mp2_md_10.orca.scfp.tmp

One-Electron Terms    ...
  ECP gradient                                           ... One-Electron Terms done

-----------------------------------------------------------
MP2 COSX Grid Generation
-----------------------------------------------------------

General Integration Accuracy     IntAcc      ...  4.340
Radial Grid Type                 RadialGrid  ... Gauss-Chebyshev
Angular Grid (max. acc.)         AngularGrid ... Lebedev-302
Angular grid pruning method      GridPruning ... 3 (G Style)
Weight generation scheme         WeightScheme... Becke
Basis function cutoff            BFCut       ...    1.0000e-11
Integration weight cutoff        WCut        ...    1.0000e-14
Grids for H and He will be reduced by one unit

# of grid points (after initial pruning)     ...  57718 (   0.0 sec)
# of grid points (after weights+screening)   ...  54736 (   0.1 sec)
nearest neighbour list constructed           ...    0.0 sec
Grid point re-assignment to atoms done       ...    0.0 sec
Grid point division into batches done        ...    0.2 sec
Reduced shell lists constructed in    0.9 sec

Total number of grid points                  ...    54736
Total number of batches                      ...      861
Average number of points per batch           ...       63
Average number of grid points per atom       ...     4561
Average number of shells per batch           ...    51.85 (51.34%)
Average number of basis functions per batch  ...   135.90 (52.47%)
Average number of large shells per batch     ...    38.96 (75.13%)
Average number of large basis fcns per batch ...   101.17 (74.45%)
Maximum spatial batch extension              ...  31.14, 26.57, 32.37 au
Average spatial batch extension              ...   3.21,  3.01,  3.32 au

Overlap Fitting                  UseSFitting ... on
Two electron COSX terms .... 
Integration Timings:
Total Time                  =    94.3 sec
Basis fcn evaluation        =     0.3 sec
Density evaluation          =     0.9 sec
Integral evaluation         =    91.4 sec
K(P) evaluation             =     0.8 sec
                          .... COSX two electron terms done
COSX two-electron contribution to the gradient
     0:    -0.031713     0.058080     0.011076
     1:     0.050643    -0.123266    -0.032566
     2:    -0.131372     0.003502     0.161054
     3:    -0.037857    -0.040420    -0.126417
     4:     0.018998     0.213520    -0.043618
     5:     0.000480    -0.165975     0.025267
     6:     0.027235     0.080543     0.142142
     7:     0.111351    -0.014087    -0.130520
     8:     0.020249     0.039255     0.013057
     9:     0.047780    -0.050620    -0.031538
    10:     0.000685     0.022621    -0.017577
    11:    -0.076749    -0.023049     0.029567
Exchange-correlation gradient    ... done
Dispersion correction            ... 
Entering the calculation of the dispersion correction...

Checking the input atom types...

Done
done

                *********************************************
                * UNRELAXED MP2 DENSITY POPULATION ANALYSIS *
                *********************************************

------------------------------------------------------------------------------
                           ORCA POPULATION ANALYSIS
------------------------------------------------------------------------------
Input electron density              ... PbMACl3_mp2_md_10.orca.pmp2ur
BaseName (.gbw .S,...)              ... PbMACl3_mp2_md_10.orca

                    ********************************
                    * MULLIKEN POPULATION ANALYSIS *
                    ********************************

-----------------------
MULLIKEN ATOMIC CHARGES
-----------------------
   0 C :   -0.285402
   1 N :   -0.251929
   2 H :    0.300976
   3 H :    0.290275
   4 H :    0.246878
   5 H :    0.175347
   6 H :    0.149215
   7 H :    0.171194
   8 Pb:    0.798101
   9 Cl:   -0.552497
  10 Cl:   -0.529067
  11 Cl:   -0.513089
Sum of atomic charges:   -0.0000000

--------------------------------
MULLIKEN REDUCED ORBITAL CHARGES
--------------------------------
  0 C s       :     3.278107  s :     3.278107
      pz      :     1.048000  p :     2.919797
      px      :     0.812385
      py      :     1.059412
      dz2     :     0.013035  d :     0.079340
      dxz     :     0.019382
      dyz     :     0.013309
      dx2y2   :     0.022656
      dxy     :     0.010958
      f0      :     0.000555  f :     0.008158
      f+1     :     0.001473
      f-1     :     0.000881
      f+2     :     0.001540
      f-2     :     0.000931
      f+3     :     0.001353
      f-3     :     0.001425
  1 N s       :     3.410206  s :     3.410206
      pz      :     1.308401  p :     3.772330
      px      :     1.225053
      py      :     1.238876
      dz2     :     0.009581  d :     0.065710
      dxz     :     0.019479
      dyz     :     0.008777
      dx2y2   :     0.018454
      dxy     :     0.009419
      f0      :     0.000229  f :     0.003683
      f+1     :     0.000813
      f-1     :     0.000486
      f+2     :     0.000620
      f-2     :     0.000438
      f+3     :     0.000479
      f-3     :     0.000619
  2 H s       :     0.667987  s :     0.667987
      pz      :     0.013355  p :     0.031037
      px      :     0.011952
      py      :     0.005730
  3 H s       :     0.643220  s :     0.643220
      pz      :     0.028026  p :     0.066505
      px      :     0.011987
      py      :     0.026491
  4 H s       :     0.712372  s :     0.712372
      pz      :     0.009641  p :     0.040750
      px      :     0.008497
      py      :     0.022613
  5 H s       :     0.801520  s :     0.801520
      pz      :     0.004487  p :     0.023133
      px      :     0.003420
      py      :     0.015226
  6 H s       :     0.829464  s :     0.829464
      pz      :     0.011562  p :     0.021321
      px      :     0.003760
      py      :     0.005999
  7 H s       :     0.805362  s :     0.805362
      pz      :     0.009675  p :     0.023444
      px      :     0.008984
      py      :     0.004785
  8 Pbs       :     3.899326  s :     3.899326
      pz      :     2.347053  p :     7.050765
      px      :     2.372739
      py      :     2.330973
      dz2     :     2.023117  d :    10.146577
      dxz     :     2.033743
      dyz     :     2.020846
      dx2y2   :     2.036757
      dxy     :     2.032115
      f0      :     0.010277  f :     0.105232
      f+1     :     0.010601
      f-1     :     0.012391
      f+2     :     0.017770
      f-2     :     0.014331
      f+3     :     0.018878
      f-3     :     0.020984
  9 Cls       :     5.950358  s :     5.950358
      pz      :     3.893206  p :    11.545247
      px      :     3.820284
      py      :     3.831758
      dz2     :     0.009340  d :     0.053518
      dxz     :     0.010414
      dyz     :     0.011404
      dx2y2   :     0.009614
      dxy     :     0.012747
      f0      :     0.000461  f :     0.003374
      f+1     :     0.000428
      f-1     :     0.000447
      f+2     :     0.000438
      f-2     :     0.000596
      f+3     :     0.000514
      f-3     :     0.000491
 10 Cls       :     5.942723  s :     5.942723
      pz      :     3.896361  p :    11.509502
      px      :     3.918883
      py      :     3.694258
      dz2     :     0.011364  d :     0.071603
      dxz     :     0.010282
      dyz     :     0.020569
      dx2y2   :     0.018252
      dxy     :     0.011136
      f0      :     0.000704  f :     0.005239
      f+1     :     0.000412
      f-1     :     0.000674
      f+2     :     0.001093
      f-2     :     0.000651
      f+3     :     0.000843
      f-3     :     0.000862
 11 Cls       :     5.945091  s :     5.945091
      pz      :     3.860361  p :    11.505664
      px      :     3.751308
      py      :     3.893996
      dz2     :     0.010330  d :     0.058557
      dxz     :     0.012580
      dyz     :     0.008404
      dx2y2   :     0.014652
      dxy     :     0.012591
      f0      :     0.000484  f :     0.003777
      f+1     :     0.000566
      f-1     :     0.000389
      f+2     :     0.000559
      f-2     :     0.000487
      f+3     :     0.000636
      f-3     :     0.000656


                     *******************************
                     * LOEWDIN POPULATION ANALYSIS *
                     *******************************

----------------------
LOEWDIN ATOMIC CHARGES
----------------------
   0 C :   -0.319676
   1 N :    0.125991
   2 H :    0.228150
   3 H :    0.046651
   4 H :    0.152105
   5 H :    0.136405
   6 H :    0.133787
   7 H :    0.135004
   8 Pb:   -0.130273
   9 Cl:   -0.274210
  10 Cl:   -0.056605
  11 Cl:   -0.177329

-------------------------------
LOEWDIN REDUCED ORBITAL CHARGES
-------------------------------
  0 C s       :     2.852221  s :     2.852221
      pz      :     1.067515  p :     3.085847
      px      :     0.943520
      py      :     1.074811
      dz2     :     0.049258  d :     0.335582
      dxz     :     0.092674
      dyz     :     0.043648
      dx2y2   :     0.096597
      dxy     :     0.053405
      f0      :     0.003788  f :     0.046027
      f+1     :     0.008272
      f-1     :     0.004871
      f+2     :     0.005687
      f-2     :     0.005693
      f+3     :     0.009021
      f-3     :     0.008696
  1 N s       :     2.955913  s :     2.955913
      pz      :     1.228239  p :     3.694936
      px      :     1.236525
      py      :     1.230171
      dz2     :     0.028706  d :     0.208398
      dxz     :     0.059958
      dyz     :     0.026806
      dx2y2   :     0.063647
      dxy     :     0.029281
      f0      :     0.001043  f :     0.014763
      f+1     :     0.003079
      f-1     :     0.002060
      f+2     :     0.001647
      f-2     :     0.001623
      f+3     :     0.002740
      f-3     :     0.002570
  2 H s       :     0.682175  s :     0.682175
      pz      :     0.041162  p :     0.089675
      px      :     0.032852
      py      :     0.015661
  3 H s       :     0.712898  s :     0.712898
      pz      :     0.103504  p :     0.240451
      px      :     0.036678
      py      :     0.100269
  4 H s       :     0.719015  s :     0.719015
      pz      :     0.032654  p :     0.128880
      px      :     0.029759
      py      :     0.066467
  5 H s       :     0.800644  s :     0.800644
      pz      :     0.012429  p :     0.062950
      px      :     0.009642
      py      :     0.040879
  6 H s       :     0.808459  s :     0.808459
      pz      :     0.029600  p :     0.057755
      px      :     0.010303
      py      :     0.017852
  7 H s       :     0.800175  s :     0.800175
      pz      :     0.027813  p :     0.064821
      px      :     0.023349
      py      :     0.013659
  8 Pbs       :     3.684700  s :     3.684700
      pz      :     2.462067  p :     7.517286
      px      :     2.549979
      py      :     2.505240
      dz2     :     2.092170  d :    10.676450
      dxz     :     2.126100
      dyz     :     2.128565
      dx2y2   :     2.174335
      dxy     :     2.155281
      f0      :     0.024885  f :     0.251838
      f+1     :     0.019595
      f-1     :     0.023156
      f+2     :     0.047798
      f-2     :     0.033983
      f+3     :     0.045646
      f-3     :     0.056775
  9 Cls       :     5.775494  s :     5.775494
      pz      :     3.851843  p :    11.428209
      px      :     3.781510
      py      :     3.794856
      dz2     :     0.009054  d :     0.066309
      dxz     :     0.013503
      dyz     :     0.016550
      dx2y2   :     0.009642
      dxy     :     0.017560
      f0      :     0.000623  f :     0.004198
      f+1     :     0.000429
      f-1     :     0.000451
      f+2     :     0.000460
      f-2     :     0.001036
      f+3     :     0.000678
      f-3     :     0.000523
 10 Cls       :     5.654038  s :     5.654038
      pz      :     3.827269  p :    11.277133
      px      :     3.846959
      py      :     3.602905
      dz2     :     0.012160  d :     0.116593
      dxz     :     0.010563
      dyz     :     0.044154
      dx2y2   :     0.035459
      dxy     :     0.014256
      f0      :     0.001392  f :     0.008840
      f+1     :     0.000413
      f-1     :     0.000743
      f+2     :     0.002672
      f-2     :     0.000972
      f+3     :     0.001163
      f-3     :     0.001486
 11 Cls       :     5.730221  s :     5.730221
      pz      :     3.805232  p :    11.363616
      px      :     3.718985
      py      :     3.839399
      dz2     :     0.014581  d :     0.078219
      dxz     :     0.013853
      dyz     :     0.008436
      dx2y2   :     0.024308
      dxy     :     0.017041
      f0      :     0.000612  f :     0.005274
      f+1     :     0.000854
      f-1     :     0.000419
      f+2     :     0.000712
      f-2     :     0.000551
      f+3     :     0.000967
      f-3     :     0.001159


                      *****************************
                      * MAYER POPULATION ANALYSIS *
                      *****************************

  NA   - Mulliken gross atomic population
  ZA   - Total nuclear charge
  QA   - Mulliken gross atomic charge
  VA   - Mayer's total valence
  BVA  - Mayer's bonded valence
  FA   - Mayer's free valence

  ATOM       NA         ZA         QA         VA         BVA        FA
  0 C      6.2854     6.0000    -0.2854     3.8569     3.7405     0.1164
  1 N      7.2519     7.0000    -0.2519     3.4301     3.2966     0.1335
  2 H      0.6990     1.0000     0.3010     0.9081     0.8891     0.0190
  3 H      0.7097     1.0000     0.2903     1.0272     1.0076     0.0195
  4 H      0.7531     1.0000     0.2469     0.9347     0.9184     0.0163
  5 H      0.8247     1.0000     0.1753     0.9841     0.9643     0.0199
  6 H      0.8508     1.0000     0.1492     0.9662     0.9465     0.0197
  7 H      0.8288     1.0000     0.1712     0.9702     0.9520     0.0182
  8 Pb    21.2019    22.0000     0.7981     2.3237     1.9500     0.3736
  9 Cl    17.5525    17.0000    -0.5525     1.0011     0.7369     0.2643
 10 Cl    17.5291    17.0000    -0.5291     1.0225     0.7642     0.2584
 11 Cl    17.5131    17.0000    -0.5131     1.0607     0.7986     0.2621

  Mayer bond orders larger than 0.1
B(  0-C ,  1-N ) :   0.8845 B(  0-C ,  5-H ) :   0.9445 B(  0-C ,  6-H ) :   0.9439 
B(  0-C ,  7-H ) :   0.9522 B(  1-N ,  2-H ) :   0.8724 B(  1-N ,  3-H ) :   0.6832 
B(  1-N ,  4-H ) :   0.9064 B(  3-H , 10-Cl) :   0.2990 B(  8-Pb,  9-Cl) :   0.7152 
B(  8-Pb, 10-Cl) :   0.4298 B(  8-Pb, 11-Cl) :   0.7721 


                *******************************************
                * RELAXED MP2 DENSITY POPULATION ANALYSIS *
                *******************************************

------------------------------------------------------------------------------
                           ORCA POPULATION ANALYSIS
------------------------------------------------------------------------------
Input electron density              ... PbMACl3_mp2_md_10.orca.pmp2re
BaseName (.gbw .S,...)              ... PbMACl3_mp2_md_10.orca

                    ********************************
                    * MULLIKEN POPULATION ANALYSIS *
                    ********************************

-----------------------
MULLIKEN ATOMIC CHARGES
-----------------------
   0 C :   -0.302826
   1 N :   -0.253183
   2 H :    0.301035
   3 H :    0.280853
   4 H :    0.248403
   5 H :    0.179330
   6 H :    0.152659
   7 H :    0.175691
   8 Pb:    0.737680
   9 Cl:   -0.527643
  10 Cl:   -0.502875
  11 Cl:   -0.489124
Sum of atomic charges:   -0.0000000

--------------------------------
MULLIKEN REDUCED ORBITAL CHARGES
--------------------------------
  0 C s       :     3.281255  s :     3.281255
      pz      :     1.054632  p :     2.938490
      px      :     0.818903
      py      :     1.064954
      dz2     :     0.012261  d :     0.075093
      dxz     :     0.018182
      dyz     :     0.012547
      dx2y2   :     0.021440
      dxy     :     0.010662
      f0      :     0.000542  f :     0.007989
      f+1     :     0.001444
      f-1     :     0.000857
      f+2     :     0.001506
      f-2     :     0.000915
      f+3     :     0.001340
      f-3     :     0.001384
  1 N s       :     3.412450  s :     3.412450
      pz      :     1.307954  p :     3.772667
      px      :     1.223797
      py      :     1.240915
      dz2     :     0.009312  d :     0.064445
      dxz     :     0.018962
      dyz     :     0.008824
      dx2y2   :     0.018021
      dxy     :     0.009326
      f0      :     0.000223  f :     0.003621
      f+1     :     0.000801
      f-1     :     0.000479
      f+2     :     0.000607
      f-2     :     0.000431
      f+3     :     0.000480
      f-3     :     0.000599
  2 H s       :     0.668313  s :     0.668313
      pz      :     0.013090  p :     0.030652
      px      :     0.011747
      py      :     0.005815
  3 H s       :     0.653181  s :     0.653181
      pz      :     0.027626  p :     0.065966
      px      :     0.012049
      py      :     0.026291
  4 H s       :     0.711244  s :     0.711244
      pz      :     0.009697  p :     0.040353
      px      :     0.008585
      py      :     0.022071
  5 H s       :     0.797923  s :     0.797923
      pz      :     0.004543  p :     0.022747
      px      :     0.003502
      py      :     0.014702
  6 H s       :     0.826360  s :     0.826360
      pz      :     0.011201  p :     0.020981
      px      :     0.003823
      py      :     0.005956
  7 H s       :     0.801263  s :     0.801263
      pz      :     0.009417  p :     0.023047
      px      :     0.008777
      py      :     0.004852
  8 Pbs       :     3.913023  s :     3.913023
      pz      :     2.357620  p :     7.099932
      px      :     2.388342
      py      :     2.353970
      dz2     :     2.023165  d :    10.146091
      dxz     :     2.033465
      dyz     :     2.020095
      dx2y2   :     2.036950
      dxy     :     2.032416
      f0      :     0.010013  f :     0.103274
      f+1     :     0.010396
      f-1     :     0.012265
      f+2     :     0.017437
      f-2     :     0.013985
      f+3     :     0.018568
      f-3     :     0.020610
  9 Cls       :     5.951330  s :     5.951330
      pz      :     3.884095  p :    11.519610
      px      :     3.811300
      py      :     3.824215
      dz2     :     0.009292  d :     0.053319
      dxz     :     0.010394
      dyz     :     0.011454
      dx2y2   :     0.009620
      dxy     :     0.012559
      f0      :     0.000460  f :     0.003384
      f+1     :     0.000429
      f-1     :     0.000450
      f+2     :     0.000441
      f-2     :     0.000596
      f+3     :     0.000515
      f-3     :     0.000494
 10 Cls       :     5.942629  s :     5.942629
      pz      :     3.888768  p :    11.481942
      px      :     3.913127
      py      :     3.680047
      dz2     :     0.011544  d :     0.073038
      dxz     :     0.010339
      dyz     :     0.021032
      dx2y2   :     0.018748
      dxy     :     0.011374
      f0      :     0.000705  f :     0.005266
      f+1     :     0.000413
      f-1     :     0.000680
      f+2     :     0.001096
      f-2     :     0.000656
      f+3     :     0.000851
      f-3     :     0.000865
 11 Cls       :     5.945849  s :     5.945849
      pz      :     3.850334  p :    11.481090
      px      :     3.743526
      py      :     3.887230
      dz2     :     0.010366  d :     0.058401
      dxz     :     0.012402
      dyz     :     0.008380
      dx2y2   :     0.014632
      dxy     :     0.012621
      f0      :     0.000483  f :     0.003785
      f+1     :     0.000568
      f-1     :     0.000390
      f+2     :     0.000559
      f-2     :     0.000488
      f+3     :     0.000639
      f-3     :     0.000657


                     *******************************
                     * LOEWDIN POPULATION ANALYSIS *
                     *******************************

----------------------
LOEWDIN ATOMIC CHARGES
----------------------
   0 C :   -0.328807
   1 N :    0.121771
   2 H :    0.228945
   3 H :    0.044553
   4 H :    0.152786
   5 H :    0.138582
   6 H :    0.136143
   7 H :    0.137179
   8 Pb:   -0.164024
   9 Cl:   -0.257476
  10 Cl:   -0.046745
  11 Cl:   -0.162907

-------------------------------
LOEWDIN REDUCED ORBITAL CHARGES
-------------------------------
  0 C s       :     2.853718  s :     2.853718
      pz      :     1.071628  p :     3.098108
      px      :     0.947864
      py      :     1.078616
      dz2     :     0.048458  d :     0.331207
      dxz     :     0.091472
      dyz     :     0.042909
      dx2y2   :     0.095450
      dxy     :     0.052918
      f0      :     0.003768  f :     0.045774
      f+1     :     0.008228
      f-1     :     0.004854
      f+2     :     0.005619
      f-2     :     0.005671
      f+3     :     0.008986
      f-3     :     0.008649
  1 N s       :     2.957435  s :     2.957435
      pz      :     1.229402  p :     3.697486
      px      :     1.236920
      py      :     1.231165
      dz2     :     0.028749  d :     0.208471
      dxz     :     0.059718
      dyz     :     0.027127
      dx2y2   :     0.063457
      dxy     :     0.029421
      f0      :     0.001047  f :     0.014836
      f+1     :     0.003095
      f-1     :     0.002083
      f+2     :     0.001645
      f-2     :     0.001637
      f+3     :     0.002753
      f-3     :     0.002576
  2 H s       :     0.681520  s :     0.681520
      pz      :     0.041037  p :     0.089536
      px      :     0.032711
      py      :     0.015787
  3 H s       :     0.715439  s :     0.715439
      pz      :     0.103384  p :     0.240008
      px      :     0.036784
      py      :     0.099841
  4 H s       :     0.718336  s :     0.718336
      pz      :     0.032758  p :     0.128878
      px      :     0.029877
      py      :     0.066244
  5 H s       :     0.798402  s :     0.798402
      pz      :     0.012580  p :     0.063016
      px      :     0.009827
      py      :     0.040609
  6 H s       :     0.805976  s :     0.805976
      pz      :     0.029448  p :     0.057881
      px      :     0.010496
      py      :     0.017937
  7 H s       :     0.797931  s :     0.797931
      pz      :     0.027745  p :     0.064890
      px      :     0.023345
      py      :     0.013800
  8 Pbs       :     3.697541  s :     3.697541
      pz      :     2.467153  p :     7.547362
      px      :     2.559687
      py      :     2.520522
      dz2     :     2.091441  d :    10.670126
      dxz     :     2.124753
      dyz     :     2.126461
      dx2y2   :     2.173047
      dxy     :     2.154423
      f0      :     0.024383  f :     0.248995
      f+1     :     0.019229
      f-1     :     0.022876
      f+2     :     0.047342
      f-2     :     0.033460
      f+3     :     0.045269
      f-3     :     0.056435
  9 Cls       :     5.778479  s :     5.778479
      pz      :     3.844221  p :    11.407886
      px      :     3.774350
      py      :     3.789316
      dz2     :     0.009072  d :     0.066860
      dxz     :     0.013631
      dyz     :     0.016717
      dx2y2   :     0.009711
      dxy     :     0.017729
      f0      :     0.000631  f :     0.004252
      f+1     :     0.000431
      f-1     :     0.000453
      f+2     :     0.000463
      f-2     :     0.001054
      f+3     :     0.000689
      f-3     :     0.000532
 10 Cls       :     5.657542  s :     5.657542
      pz      :     3.821759  p :    11.261265
      px      :     3.843106
      py      :     3.596399
      dz2     :     0.012498  d :     0.119014
      dxz     :     0.010656
      dyz     :     0.044830
      dx2y2   :     0.036451
      dxy     :     0.014579
      f0      :     0.001404  f :     0.008925
      f+1     :     0.000414
      f-1     :     0.000755
      f+2     :     0.002691
      f-2     :     0.000978
      f+3     :     0.001174
      f-3     :     0.001509
 11 Cls       :     5.733369  s :     5.733369
      pz      :     3.796687  p :    11.344925
      px      :     3.713943
      py      :     3.834296
      dz2     :     0.014742  d :     0.079248
      dxz     :     0.013999
      dyz     :     0.008450
      dx2y2   :     0.024708
      dxy     :     0.017348
      f0      :     0.000623  f :     0.005365
      f+1     :     0.000863
      f-1     :     0.000420
      f+2     :     0.000729
      f-2     :     0.000559
      f+3     :     0.000989
      f-3     :     0.001182


                      *****************************
                      * MAYER POPULATION ANALYSIS *
                      *****************************

  NA   - Mulliken gross atomic population
  ZA   - Total nuclear charge
  QA   - Mulliken gross atomic charge
  VA   - Mayer's total valence
  BVA  - Mayer's bonded valence
  FA   - Mayer's free valence

  ATOM       NA         ZA         QA         VA         BVA        FA
  0 C      6.3028     6.0000    -0.3028     3.8579     3.7417     0.1162
  1 N      7.2532     7.0000    -0.2532     3.4336     3.3005     0.1332
  2 H      0.6990     1.0000     0.3010     0.9082     0.8892     0.0190
  3 H      0.7191     1.0000     0.2809     1.0362     1.0168     0.0194
  4 H      0.7516     1.0000     0.2484     0.9338     0.9175     0.0162
  5 H      0.8207     1.0000     0.1793     0.9829     0.9632     0.0197
  6 H      0.8473     1.0000     0.1527     0.9658     0.9461     0.0197
  7 H      0.8243     1.0000     0.1757     0.9692     0.9511     0.0181
  8 Pb    21.2623    22.0000     0.7377     2.4165     2.0493     0.3672
  9 Cl    17.5276    17.0000    -0.5276     1.0451     0.7827     0.2624
 10 Cl    17.5029    17.0000    -0.5029     1.0715     0.8145     0.2570
 11 Cl    17.4891    17.0000    -0.4891     1.1033     0.8429     0.2603

  Mayer bond orders larger than 0.1
B(  0-C ,  1-N ) :   0.8927 B(  0-C ,  5-H ) :   0.9409 B(  0-C ,  6-H ) :   0.9407 
B(  0-C ,  7-H ) :   0.9492 B(  1-N ,  2-H ) :   0.8707 B(  1-N ,  3-H ) :   0.6760 
B(  1-N ,  4-H ) :   0.9039 B(  3-H , 10-Cl) :   0.3127 B(  8-Pb,  9-Cl) :   0.7540 
B(  8-Pb, 10-Cl) :   0.4500 B(  8-Pb, 11-Cl) :   0.8090 


-------
TIMINGS
-------

Total time                :  507.920 sec
Integral trafo            :    2.479 sec (  0.5%)
I/O of integrals          :    0.107 sec (  0.0%)
K(i,j) Operators          :    8.380 sec (  1.6%)
T(i,j) pair energies      :    1.128 sec (  0.2%)
V-calculation             :    0.019 sec (  0.0%)
V**(-1/2)                 :    0.044 sec (  0.0%)
Gamma(ia|P)               :    8.155 sec (  1.6%)
Gamma-Trafo               :    1.098 sec (  0.2%)
D(virtual)                :    3.661 sec (  0.7%)
D(internal)               :    3.486 sec (  0.7%)
W(virtual)                :    7.317 sec (  1.4%)
W(internal)               :   12.282 sec (  2.4%)
L(virtual)                :    4.612 sec (  0.9%)
L(internal)               :    0.171 sec (  0.0%)
G(D)                      :   13.847 sec (  2.7%)
G(Z)                      :   13.950 sec (  2.7%)
Z-Vector Solution         :  314.392 sec ( 61.9%)
Z-Vector Solution         :  314.392 sec ( 61.9%)
3-Index Derivative 
+ Separable RIJ part      :    4.085 sec (  0.8%)
2-Index Derivative 
+ Separable RIJ part      :    0.035 sec (  0.0%)
Separable Gradient (COSX) :  106.117 sec ( 20.9%)


---------------------------------------
MP2 TOTAL ENERGY:    -1669.519691356 Eh
---------------------------------------

The final MP2 gradient
  0:  -0.03654160   0.02617409  -0.02622142
  1:   0.03698387   0.01045327  -0.08694190
  2:  -0.01237924   0.00808181   0.03221733
  3:   0.01433912   0.01330966   0.01327710
  4:  -0.01445924  -0.09233541   0.01864304
  5:   0.00819848  -0.01838803  -0.00253850
  6:  -0.00905936   0.01698268   0.02532335
  7:  -0.00385412  -0.01192260  -0.00993191
  8:  -0.02911503   0.03918777  -0.03480609
  9:   0.00428644  -0.00015156   0.00461598
 10:   0.01787552   0.00304059   0.06466587
 11:   0.02340351   0.00568137   0.00161917

-----------------------------------
NORM OF THE MP2 GRADIENT:  0.181793
-----------------------------------

Entering the calculation of the dispersion correction...

Checking the input atom types...

Done


-------------------------------------------------------------------------------
                          DFT DISPERSION CORRECTION                            
                                                                               
                                DFTD3 V2.1  Rev 6                               
                          USING Becke-Johnson damping                          
-------------------------------------------------------------------------------
The B2PLYP functional is recognized
Active option DFTDOPT                   ...         4   

molecular C6(AA) [au] = 4870.223852 


            DFT-D V3
 parameters
 s6 scaling factor         :     0.6400 
 a1 scaling factor         :     0.3065 
 s8 scaling factor         :     0.9147 
 a2 scaling factor         :     5.0570 
 ad hoc parameters k1-k3   :    16.0000     1.3333    -4.0000 

 Edisp/kcal,au: -7.391492602424  -0.011779091981 
 E6   /kcal   :  -3.357946098 
 E8   /kcal   :  -4.033546505 
 % E8         :  54.570121648 

-------------------------   ----------------
Dispersion correction           -0.011779092
-------------------------   ----------------


-------------------------   --------------------
FINAL SINGLE POINT ENERGY     -1669.531470447844
-------------------------   --------------------


                            ***************************************
                            *     ORCA property calculations      *
                            ***************************************


  WARNING: The energy has been calculated at the MP2 level but the densities
           used in the property calculations are still SCF densities
           MP2 response densities have not been calculated 
           use %mp2 Density relaxed end
           or  %mp2 Density unrelaxed end

                                    ---------------------
                                    Active property flags
                                    ---------------------
   (+) Dipole Moment


------------------------------------------------------------------------------
                       ORCA ELECTRIC PROPERTIES CALCULATION
------------------------------------------------------------------------------

Dipole Moment Calculation                       ... on
Quadrupole Moment Calculation                   ... off
Polarizability Calculation                      ... off
GBWName                                         ... PbMACl3_mp2_md_10.orca.gbw
Electron density file                           ... PbMACl3_mp2_md_10.orca.scfp.tmp

-------------
DIPOLE MOMENT
-------------
                                X             Y             Z
Electronic contribution:    -18.79074     -66.71272      12.86237
Nuclear contribution   :     20.40845      72.68649     -10.91589
                        -----------------------------------------
Total Dipole Moment    :      1.61771       5.97377       1.94648
                        -----------------------------------------
Magnitude (a.u.)       :      6.48781
Magnitude (Debye)      :     16.49071


                         *** MP2 UNRELAXED DENSITY ***

------------------------------------------------------------------------------
                       ORCA ELECTRIC PROPERTIES CALCULATION
------------------------------------------------------------------------------

Dipole Moment Calculation                       ... on
Quadrupole Moment Calculation                   ... off
Polarizability Calculation                      ... off
GBWName                                         ... PbMACl3_mp2_md_10.orca.gbw
Electron density file                           ... PbMACl3_mp2_md_10.orca.pmp2ur

-------------
DIPOLE MOMENT
-------------
                                X             Y             Z
Electronic contribution:    -18.79383     -66.73242      12.85410
Nuclear contribution   :     20.40845      72.68649     -10.91589
                        -----------------------------------------
Total Dipole Moment    :      1.61461       5.95407       1.93821
                        -----------------------------------------
Magnitude (a.u.)       :      6.46642
Magnitude (Debye)      :     16.43632


                           *** MP2 RELAXED DENSITY ***

------------------------------------------------------------------------------
                       ORCA ELECTRIC PROPERTIES CALCULATION
------------------------------------------------------------------------------

Dipole Moment Calculation                       ... on
Quadrupole Moment Calculation                   ... off
Polarizability Calculation                      ... off
GBWName                                         ... PbMACl3_mp2_md_10.orca.gbw
Electron density file                           ... PbMACl3_mp2_md_10.orca.pmp2re

-------------
DIPOLE MOMENT
-------------
                                X             Y             Z
Electronic contribution:    -18.79132     -66.81099      12.85828
Nuclear contribution   :     20.40845      72.68649     -10.91589
                        -----------------------------------------
Total Dipole Moment    :      1.61713       5.87550       1.94239
                        -----------------------------------------
Magnitude (a.u.)       :      6.39605
Magnitude (Debye)      :     16.25747


Timings for individual modules:

Sum of individual times         ...      935.299 sec (=  15.588 min)
GTO integral calculation        ...        4.184 sec (=   0.070 min)   0.4 %
SCF iterations                  ...      421.941 sec (=   7.032 min)  45.1 %
MP2 module                      ...      509.175 sec (=   8.486 min)  54.4 %
                             ****ORCA TERMINATED NORMALLY****
TOTAL RUN TIME: 0 days 0 hours 15 minutes 37 seconds 44 msec
