
                                 *****************
                                 * O   R   C   A *
                                 *****************

           --- An Ab Initio, DFT and Semiempirical electronic structure package ---

                  #######################################################
                  #                        -***-                        #
                  #  Department of molecular theory and spectroscopy    #
                  #              Directorship: Frank Neese              #
                  # Max Planck Institute for Chemical Energy Conversion #
                  #                  D-45470 Muelheim/Ruhr              #
                  #                       Germany                       #
                  #                                                     #
                  #                  All rights reserved                #
                  #                        -***-                        #
                  #######################################################


                         Program Version 3.0.3 - RELEASE   -


 With contributions from (in alphabetic order):
   Ute Becker             : Parallelization
   Dmytro Bykov           : SCF Hessian
   Dmitry Ganyushin       : Spin-Orbit,Spin-Spin,Magnetic field MRCI
   Andreas Hansen         : Spin unrestricted coupled pair/coupled cluster methods
   Dimitrios Liakos       : Extrapolation schemes; parallel MDCI
   Robert Izsak           : Overlap fitted RIJCOSX, COSX-SCS-MP3
   Christian Kollmar      : KDIIS, OOCD, Brueckner-CCSD(T), CCSD density
   Simone Kossmann        : Meta GGA functionals, TD-DFT gradient, OOMP2, MP2 Hessian
   Taras Petrenko         : DFT Hessian,TD-DFT gradient, ASA and ECA modules, normal mode analysis, Resonance Raman, ABS, FL, XAS/XES, NRVS
   Christoph Reimann      : Effective Core Potentials
   Michael Roemelt        : Restricted open shell CIS
   Christoph Riplinger    : Improved optimizer, TS searches, QM/MM, DLPNO-CCSD
   Barbara Sandhoefer     : DKH picture change effects
   Igor Schapiro          : Molecular dynamics
   Kantharuban Sivalingam : CASSCF convergence, NEVPT2
   Boris Wezisla          : Elementary symmetry handling
   Frank Wennmohs         : Technical directorship


 We gratefully acknowledge several colleagues who have allowed us to
 interface, adapt or use parts of their codes:
   Stefan Grimme, W. Hujo, H. Kruse, T. Risthaus : VdW corrections, initial TS optimization,
                                                   DFT functionals, gCP
   Ed Valeev                                     : LibInt (2-el integral package), F12 methods
   Garnet Chan, S. Sharma, R. Olivares           : DMRG
   Ulf Ekstrom                                   : XCFun DFT Library
   Mihaly Kallay                                 : mrcc  (arbitrary order and MRCC methods)
   Andreas Klamt, Michael Diedenhofen            : otool_cosmo (COSMO solvation model)
   Frank Weinhold                                : gennbo (NPA and NBO analysis)
   Christopher J. Cramer and Donald G. Truhlar   : smd solvation model


 Your calculation uses the libint2 library for the computation of 2-el integrals
 For citations please refer to: http://libint.valeyev.net

 This ORCA versions uses:
   CBLAS   interface :  Fast vector & matrix operations
   LAPACKE interface :  Fast linear algebra routines
   SCALAPACK package :  Parallel linear algebra routines


Your calculation utilizes the basis: Ahlrichs-TZV
Cite in your paper:
H - Kr: A. Schaefer, H. Horn and R. Ahlrichs, J. Chem. Phys. 97, 2571 (1992).

The def2-TZV basis will be loaded
Cite in your paper:
 	F. Weigend, R. Ahlrichs, Phys. Chem. Chem. Phys. 2005, 7, 3297.

Your calculation utilizes the atom-pairwise dispersion correction
with the Becke-Johnson damping scheme (D3BJ)
Cite in your paper:
S.Grimme, S.Ehrlich, L.Goerigk, J Comput Chem, (2011), 32, 1456–1465 
S.Grimme, J.Antony, S.Ehrlich and H.Krieg, J.Chem.Phys., 132, (2010), 154104 
   

================================================================================
                                        WARNINGS
                       Please study these warnings very carefully!
================================================================================

WARNING: The RI method has been chosen with no auxiliary basis (AUX or GTOAUX in BASIS block)
        Standard TZV/J expansion basis used (GTOAUX=TZV_J)

Now building the actual basis set
cite the ECPs for Pb [SD(60,MDF)] as follows:
  B. Metz, H. Stoll, M. Dolg, J. Chem. Phys. 113, 2563 (2000).

ECP parameters for Pb [SD(60,MDF)] have been obtained from:
  pseudopotential library of the Stuttgart/Cologne group
  http://www.theochem.uni-stuttgart.de/pseudopotentials/

cite the ECP basis sets for Pb [DEF2-TZVP] as follows:
  F. Weigend, R. Ahlrichs; Phys. Chem. Chem. Phys. 7, 3297(2005).

ECP basis sets for Pb [DEF2-TZVP] have been obtained from:
  Turbomole basis set library
  ftp://ftp.chemie.uni-karlsruhe.de/pub/basen/



INFO   : the flag for use of LIBINT has been found!

================================================================================
                                       INPUT FILE
================================================================================
NAME = PbMACl3_mp2_5.orca
|  1> ! RIJCOSX RI-B2PLYP D3BJ def2-TZVP ECP{def2-TZVP} TIGHTSCF Grid5 FinalGrid6 SlowConv MORead
|  2> %method
|  3>  RunTyp Gradient
|  4>  end
|  5> %maxcore 1000
|  6> %moinp "previous.gbw"
|  7> *xyz 0 1
|  8> C 2.905719 3.576013 2.873338
|  9> N 2.134625 2.614408 2.046990
| 10> H 3.548796 3.021424 3.560517
| 11> H 2.209179 4.197444 3.440826
| 12> H 3.515705 4.204875 2.220874
| 13> H 1.516852 1.975028 2.601630
| 14> H 2.717740 1.973704 1.464858
| 15> H 1.486857 3.059076 1.361735
| 16> Pb 0.473460 0.131547 0.209487
| 17> Cl 2.339292 0.268387 0.089874
| 18> Cl 0.077890 2.735046 -0.108798
| 19> Cl 0.157014 0.320768 2.851419
| 20> *
| 21> 
| 22>                          ****END OF INPUT****
================================================================================

                     *******************************
                     * Energy+Gradient Calculation *
                     *******************************

---------------------------------
CARTESIAN COORDINATES (ANGSTROEM)
---------------------------------
  C      2.905719    3.576013    2.873338
  N      2.134625    2.614408    2.046990
  H      3.548796    3.021424    3.560517
  H      2.209179    4.197444    3.440826
  H      3.515705    4.204875    2.220874
  H      1.516852    1.975028    2.601630
  H      2.717740    1.973704    1.464858
  H      1.486857    3.059076    1.361735
  Pb     0.473460    0.131547    0.209487
  Cl     2.339292    0.268387    0.089874
  Cl     0.077890    2.735046   -0.108798
  Cl     0.157014    0.320768    2.851419

----------------------------
CARTESIAN COORDINATES (A.U.)
----------------------------
  NO LB      ZA    FRAG    MASS        X           Y           Z
   0 C     6.0000    0    12.011          5.491013132131525          6.757685221342137          5.429821910189021
   1 N     7.0000    0    14.007          4.033856648621652          4.940515122332791          3.868250498875463
   2 H     1.0000    0     1.008          6.706252545155202          5.709663894456884          6.728402025170893
   3 H     1.0000    0     1.008          4.174743290810016          7.932019622470954          6.502218814475724
   4 H     1.0000    0     1.008          6.643719617657614          7.946062177372124          4.196843637946225
   5 H     1.0000    0     1.008          2.866434865690719          3.732262026826222          4.916368201793546
   6 H     1.0000    0     1.008          5.135784303203143          3.729760029424910          2.768180445083617
   7 H     1.0000    0     1.008          2.809752530303751          5.780815862851287          2.573306216975256
   8 Pb   22.0000*   0   207.200  0.894709735366356  0.248587803738939  0.395873058616761
   9 Cl   17.0000    0    35.453          4.420621227272912          0.507177927904723          0.169837246560039
  10 Cl   17.0000    0    35.453          0.147190768571126          5.168487903676784         -0.205598423918364
  11 Cl   17.0000    0    35.453          0.296713459191511          0.606163672525652          5.388401003059601
* core charge reduced due to ECP

--------------------------------
INTERNAL COORDINATES (ANGSTROEM)
--------------------------------
 C      0   0   0   0.000000     0.000     0.000
 N      1   0   0   1.483955     0.000     0.000
 H      1   2   0   1.092397   109.099     0.000
 H      1   2   3   1.092423   109.061   240.173
 H      1   2   3   1.092364   109.305   120.114
 H      2   1   3   1.047891   114.015    60.210
 H      2   1   3   1.043744   114.712   299.789
 H      2   1   3   1.042549   114.361   179.707
 Pb     7   2   1   3.163272   100.513   175.776
 Cl     9   7   2   1.874663    43.670   178.919
 Cl     8   2   1   2.062196   145.711   180.986
 Cl     6   2   1   2.155952   154.335   185.776

---------------------------
INTERNAL COORDINATES (A.U.)
---------------------------
 C      0   0   0   0.000000     0.000     0.000
 N      1   0   0   2.804268     0.000     0.000
 H      1   2   0   2.064332   109.099     0.000
 H      1   2   3   2.064379   109.061   240.173
 H      1   2   3   2.064269   109.305   120.114
 H      2   1   3   1.980227   114.015    60.210
 H      2   1   3   1.972391   114.712   299.789
 H      2   1   3   1.970131   114.361   179.707
 Pb     7   2   1   5.977718   100.513   175.776
 Cl     9   7   2   3.542600    43.670   178.919
 Cl     8   2   1   3.896985   145.711   180.986
 Cl     6   2   1   4.074159   154.335   185.776

---------------------
BASIS SET INFORMATION
---------------------
There are 5 groups of distinct atoms

 Group   1 Type C   : 11s6p2d1f contracted to 5s3p2d1f pattern {62111/411/11/1}
 Group   2 Type N   : 11s6p2d1f contracted to 5s3p2d1f pattern {62111/411/11/1}
 Group   3 Type H   : 5s1p contracted to 3s1p pattern {311/1}
 Group   4 Type Pb  : 10s9p8d2f contracted to 6s5p3d2f pattern {421111/33111/611/11}
 Group   5 Type Cl  : 14s9p3d1f contracted to 5s5p2d1f pattern {73211/51111/21/1}

Atom   0C    basis set group =>   1
Atom   1N    basis set group =>   2
Atom   2H    basis set group =>   3
Atom   3H    basis set group =>   3
Atom   4H    basis set group =>   3
Atom   5H    basis set group =>   3
Atom   6H    basis set group =>   3
Atom   7H    basis set group =>   3
Atom   8Pb   basis set group =>   4
Atom   9Cl   basis set group =>   5
Atom  10Cl   basis set group =>   5
Atom  11Cl   basis set group =>   5
-------------------------------
AUXILIARY BASIS SET INFORMATION
-------------------------------
There are 5 groups of distinct atoms

 Group   1 Type C   : 12s5p4d2f1g contracted to 6s4p3d1f1g pattern {711111/2111/211/2/1}
 Group   2 Type N   : 12s5p4d2f1g contracted to 6s4p3d1f1g pattern {711111/2111/211/2/1}
 Group   3 Type H   : 5s2p1d contracted to 3s1p1d pattern {311/2/1}
 Group   4 Type Pb  : 31s12p8d6f3g contracted to 31s12p8d6f3g pattern {1111111111111111111111111111111/111111111111/11111111/111111/111}
 Group   5 Type Cl  : 14s5p5d2f1g contracted to 8s4p3d1f1g pattern {71111111/2111/311/2/1}

Atom   0C    basis set group =>   1
Atom   1N    basis set group =>   2
Atom   2H    basis set group =>   3
Atom   3H    basis set group =>   3
Atom   4H    basis set group =>   3
Atom   5H    basis set group =>   3
Atom   6H    basis set group =>   3
Atom   7H    basis set group =>   3
Atom   8Pb   basis set group =>   4
Atom   9Cl   basis set group =>   5
Atom  10Cl   basis set group =>   5
Atom  11Cl   basis set group =>   5

-------------------------
ECP PARAMETER INFORMATION
-------------------------

 Group 1, Type Pb ECP SD(60,MDF) (replacing 60 core electrons, lmax=5)

Atom   8Pb   ECP group =>   1


------------------------------------------------------------------------------
                           ORCA GTO INTEGRAL CALCULATION
                           -- RI-GTO INTEGRALS CHOSEN --
------------------------------------------------------------------------------

                         BASIS SET STATISTICS AND STARTUP INFO

Gaussian basis set:
 # of primitive gaussian shells          ...  186
 # of primitive gaussian functions       ...  420
 # of contracted shells                  ...  101
 # of contracted basis functions         ...  259
 Highest angular momentum                ...    3
 Maximum contraction depth               ...    7
Auxiliary gaussian basis set:
 # of primitive gaussian shells          ...  237
 # of primitive gaussian functions       ...  643
 # of contracted shells                  ...  171
 # of contracted aux-basis functions     ...  493
 Highest angular momentum                ...    4
 Maximum contraction depth               ...    7
Ratio of auxiliary to basis functions    ...  1.90
Integral package used                  ... LIBINT
 One Electron integrals                  
   ECP integrals                         ... done
 Ordering auxiliary basis shells         ... done
 Integral threshhold             Thresh  ...  2.500e-11
 Primitive cut-off               TCut    ...  2.500e-12
 Pre-screening matrix                    ... done
 Shell pair data                         ... 
 Ordering of the shell pairs             ... done (   0.001 sec) 4475 of 5151 pairs
 Determination of significant pairs      ... done (   0.000 sec)
 Creation of shell pair data             ... done (   0.001 sec)
 Storage of shell pair data              ... done (   0.001 sec)
 Shell pair data done in (   0.003 sec)
 Computing two index integrals           ... done
 Cholesky decomposition of the V-matrix  ... done


Timings:
 Total evaluation time                   ...   0.614 sec (  0.010 min)
 One electron matrix time                ...   0.332 sec (  0.006 min) = 54.1%
 Schwartz matrix evaluation time         ...   0.234 sec (  0.004 min) = 38.2%
 Two index repulsion integral time       ...   0.008 sec (  0.000 min) =  1.3%
 Cholesky decomposition of V             ...   0.009 sec (  0.000 min) =  1.4%
 Three index repulsion integral time     ...   0.000 sec (  0.000 min) =  0.0%

-------------------------------------------------------------------------------
                                 ORCA SCF
-------------------------------------------------------------------------------

------------
SCF SETTINGS
------------
Hamiltonian:
 Density Functional     Method          .... DFT(GTOs)
 Exchange Functional    Exchange        .... B88
   X-Alpha parameter    XAlpha          ....  0.666667
   Becke's b parameter  XBeta           ....  0.004200
 Correlation Functional Correlation     .... LYP
 LDA part of GGA corr.  LDAOpt          .... VWN-3
 Gradients option       PostSCFGGA      .... off
 Hybrid DFT is turned on
   Fraction HF Exchange ScalHFX         ....  0.530000
   Scaling of DF-GGA-X  ScalDFX         ....  0.470000
   Scaling of DF-GGA-C  ScalDFC         ....  0.730000
   Scaling of DF-LDA-C  ScalLDAC        ....  0.730000
   Perturbative correction              ....  0.270000
 RI-approximation to the Coulomb term is turned on
   Number of auxiliary basis functions  .... 493
   RIJ-COSX (HFX calculated with COS-X)).... on


General Settings:
 Integral files         IntName         .... PbMACl3_mp2_5.orca
 Hartree-Fock type      HFTyp           .... RHF
 Total Charge           Charge          ....    0
 Multiplicity           Mult            ....    1
 Number of Electrons    NEL             ....   92
 Basis Dimension        Dim             ....  259
 Nuclear Repulsion      ENuc            ....    632.0035345045 Eh

Convergence Acceleration:
 DIIS                   CNVDIIS         .... on
   Start iteration      DIISMaxIt       ....     0
   Startup error        DIISStart       ....  0.200000
   # of expansion vecs  DIISMaxEq       ....     5
   Bias factor          DIISBfac        ....   1.050
   Max. coefficient     DIISMaxC        ....  10.000
 Newton-Raphson         CNVNR           .... off
 SOSCF                  CNVSOSCF        .... on
   Start iteration      SOSCFMaxIt      ....   150
   Startup grad/error   SOSCFStart      ....  0.001000
 Level Shifting         CNVShift        .... on
   Level shift para.    LevelShift      ....    0.2500
   Turn off err/grad.   ShiftErr        ....    0.0000
 Zerner damping         CNVZerner       .... off
 Static damping         CNVDamp         .... on
   Fraction old density DampFac         ....    0.8500
   Max. Damping (<1)    DampMax         ....    0.9800
   Min. Damping (>=0)   DampMin         ....    0.0000
   Turn off err/grad.   DampErr         ....    0.0300
 Fernandez-Rico         CNVRico         .... off

SCF Procedure:
 Maximum # iterations   MaxIter         ....   125
 SCF integral mode      SCFMode         .... Direct
   Integral package                     .... LIBINT
 Reset frequeny         DirectResetFreq ....    20
 Integral Threshold     Thresh          ....  2.500e-11 Eh
 Primitive CutOff       TCut            ....  2.500e-12 Eh

Convergence Tolerance:
 Convergence Check Mode ConvCheckMode   .... Total+1el-Energy
 Energy Change          TolE            ....  1.000e-08 Eh
 1-El. energy change                    ....  1.000e-05 Eh
 Orbital Gradient       TolG            ....  1.000e-05
 Orbital Rotation angle TolX            ....  1.000e-05
 DIIS Error             TolErr          ....  5.000e-07


Diagonalization of the overlap matrix:
Smallest eigenvalue                        ... 1.100e-03
Time for diagonalization                   ...    0.017 sec
Threshold for overlap eigenvalues          ... 1.000e-08
Number of eigenvalues below threshold      ... 0
Time for construction of square roots      ...    0.007 sec
Total time needed                          ...    0.025 sec

---------------------
INITIAL GUESS: MOREAD
---------------------
Guess MOs are being read from file: previous.gbw
Input Geometry matches current geometry (good)
Input basis set matches current basis set (good)
MOs were renormalized
MOs were reorthogonalized (Schmidt)
                      ------------------
                      INITIAL GUESS DONE (   0.1 sec)
                      ------------------
-------------------
DFT GRID GENERATION
-------------------

General Integration Accuracy     IntAcc      ...  5.010
Radial Grid Type                 RadialGrid  ... Gauss-Chebyshev
Angular Grid (max. acc.)         AngularGrid ... Lebedev-434
Angular grid pruning method      GridPruning ... 3 (G Style)
Weight generation scheme         WeightScheme... Becke
Basis function cutoff            BFCut       ...    1.0000e-11
Integration weight cutoff        WCut        ...    1.0000e-14
Grids for H and He will be reduced by one unit

# of grid points (after initial pruning)     ... 115882 (   0.0 sec)
# of grid points (after weights+screening)   ... 108611 (   0.3 sec)
nearest neighbour list constructed           ...    0.0 sec
Grid point re-assignment to atoms done       ...    0.0 sec
Grid point division into batches done        ...    1.0 sec
Reduced shell lists constructed in    2.4 sec

Total number of grid points                  ...   108611
Total number of batches                      ...     1703
Average number of points per batch           ...       63
Average number of grid points per atom       ...     9051
Average number of shells per batch           ...    55.38 (54.83%)
Average number of basis functions per batch  ...   146.67 (56.63%)
Average number of large shells per batch     ...    42.12 (76.06%)
Average number of large basis fcns per batch ...   108.86 (74.23%)
Maximum spatial batch extension              ...  31.95, 33.20, 30.18 au
Average spatial batch extension              ...   2.41,  2.42,  2.40 au

Time for grid setup =    2.757 sec

--------------------
COSX GRID GENERATION
--------------------

General Integration Accuracy     IntAcc      ...  3.340
Radial Grid Type                 RadialGrid  ... Gauss-Chebyshev
Angular Grid (max. acc.)         AngularGrid ... Lebedev-50
Angular grid pruning method      GridPruning ... 3 (G Style)
Weight generation scheme         WeightScheme... Becke
Basis function cutoff            BFCut       ...    1.0000e-11
Integration weight cutoff        WCut        ...    1.0000e-14
Grids for H and He will be reduced by one unit

# of grid points (after initial pruning)     ...   6578 (   0.0 sec)
# of grid points (after weights+screening)   ...   6166 (   0.0 sec)
nearest neighbour list constructed           ...    0.0 sec
Grid point re-assignment to atoms done       ...    0.0 sec
Grid point division into batches done        ...    0.0 sec
Reduced shell lists constructed in    0.1 sec

Total number of grid points                  ...     6166
Total number of batches                      ...      102
Average number of points per batch           ...       60
Average number of grid points per atom       ...      514
Average number of shells per batch           ...    66.98 (66.32%)
Average number of basis functions per batch  ...   179.80 (69.42%)
Average number of large shells per batch     ...    52.88 (78.95%)
Average number of large basis fcns per batch ...   139.45 (77.56%)
Maximum spatial batch extension              ...  32.21, 26.56, 31.04 au
Average spatial batch extension              ...   6.27,  6.06,  6.11 au

Overlap Fitting                  UseSFitting ... on
Constructing numerical overlap ... done (      0.1 sec)
Inverting numerical overlap    ... done (      0.0 sec)
Obtaining analytic overlap     ... done (      0.0 sec)
Final contraction and storage  ... done (      0.0 sec)


General Integration Accuracy     IntAcc      ...  3.670
Radial Grid Type                 RadialGrid  ... Gauss-Chebyshev
Angular Grid (max. acc.)         AngularGrid ... Lebedev-50
Angular grid pruning method      GridPruning ... 3 (G Style)
Weight generation scheme         WeightScheme... Becke
Basis function cutoff            BFCut       ...    1.0000e-11
Integration weight cutoff        WCut        ...    1.0000e-14
Grids for H and He will be reduced by one unit

# of grid points (after initial pruning)     ...   8124 (   0.0 sec)
# of grid points (after weights+screening)   ...   7600 (   0.0 sec)
nearest neighbour list constructed           ...    0.0 sec
Grid point re-assignment to atoms done       ...    0.0 sec
Grid point division into batches done        ...    0.0 sec
Reduced shell lists constructed in    0.1 sec

Total number of grid points                  ...     7600
Total number of batches                      ...      124
Average number of points per batch           ...       61
Average number of grid points per atom       ...      633
Average number of shells per batch           ...    66.18 (65.52%)
Average number of basis functions per batch  ...   177.74 (68.63%)
Average number of large shells per batch     ...    51.58 (77.95%)
Average number of large basis fcns per batch ...   135.06 (75.98%)
Maximum spatial batch extension              ...  33.65, 27.61, 32.28 au
Average spatial batch extension              ...   5.83,  5.68,  5.64 au

Overlap Fitting                  UseSFitting ... on
Constructing numerical overlap ... done (      0.1 sec)
Inverting numerical overlap    ... done (      0.0 sec)
Obtaining analytic overlap     ... done (      0.0 sec)
Final contraction and storage  ... done (      0.0 sec)


General Integration Accuracy     IntAcc      ...  4.010
Radial Grid Type                 RadialGrid  ... Gauss-Chebyshev
Angular Grid (max. acc.)         AngularGrid ... Lebedev-110
Angular grid pruning method      GridPruning ... 3 (G Style)
Weight generation scheme         WeightScheme... Becke
Basis function cutoff            BFCut       ...    1.0000e-11
Integration weight cutoff        WCut        ...    1.0000e-14
Grids for H and He will be reduced by one unit

# of grid points (after initial pruning)     ...  15170 (   0.0 sec)
# of grid points (after weights+screening)   ...  14345 (   0.0 sec)
nearest neighbour list constructed           ...    0.0 sec
Grid point re-assignment to atoms done       ...    0.0 sec
Grid point division into batches done        ...    0.0 sec
Reduced shell lists constructed in    0.2 sec

Total number of grid points                  ...    14345
Total number of batches                      ...      228
Average number of points per batch           ...       62
Average number of grid points per atom       ...     1195
Average number of shells per batch           ...    62.83 (62.20%)
Average number of basis functions per batch  ...   168.59 (65.09%)
Average number of large shells per batch     ...    48.76 (77.62%)
Average number of large basis fcns per batch ...   127.86 (75.84%)
Maximum spatial batch extension              ...  30.75, 30.09, 30.75 au
Average spatial batch extension              ...   5.00,  5.14,  4.96 au

Overlap Fitting                  UseSFitting ... on
Constructing numerical overlap ... done (      0.2 sec)
Inverting numerical overlap    ... done (      0.0 sec)
Obtaining analytic overlap     ... done (      0.0 sec)
Final contraction and storage  ... done (      0.0 sec)

Time for X-Grid setup             =    0.990 sec
--------------
SCF ITERATIONS
--------------
ITER       Energy         Delta-E        Max-DP      RMS-DP      [F,P]     Damp
               ***  Starting incremental Fock matrix formation  ***
  0  -1668.8292184312   0.000000000000 0.03803531  0.00025646  0.0678019 0.8500
  1  -1668.8319447229  -0.002726291731 0.03483252  0.00024943  0.0577021 0.8500
                               ***Turning on DIIS***
  2  -1668.8343429468  -0.002398223851 0.02997498  0.00021836  0.0490978 0.8500
  3  -1668.8364002870  -0.002057340203 0.02562130  0.00018644  0.0417695 0.8500
  4  -1668.8381693804  -0.001769093411 0.02220862  0.00016163  0.0355076 0.8500
  5  -1668.8396869549  -0.001517574461 0.01941218  0.00014209  0.0301675 0.8500
  6  -1668.8409944099  -0.001307455044 0.11246770  0.00082938  0.0256310 0.0000
                      *** Initiating the SOSCF procedure ***
                           *** Shutting down DIIS ***
                      *** Re-Reading the Fockian *** 
                      *** Removing any level shift *** 
ITER      Energy       Delta-E        Grad      Rot      Max-DP    RMS-DP
  7  -1668.84888373  -0.0078893211  0.000419  0.000419  0.003666  0.000035
               *** Restarting incremental Fock matrix formation ***
  8  -1668.84890225  -0.0000185235  0.000201  0.000651  0.001365  0.000020
  9  -1668.84890448  -0.0000022266  0.000062  0.000328  0.001163  0.000012
 10  -1668.84890481  -0.0000003316  0.000038  0.000082  0.000383  0.000004
 11  -1668.84890491  -0.0000000979  0.000005  0.000010  0.000038  0.000001
 12  -1668.84890490   0.0000000132  0.000004  0.000010  0.000021  0.000000
                  ***Gradient check signals convergence***
              ***Rediagonalizing the Fockian in SOSCF/NRSCF***

               *****************************************************
               *                     SUCCESS                       *
               *           SCF CONVERGED AFTER  13 CYCLES          *
               *****************************************************

Old exchange energy                            =    -59.300283508 Eh
New exchange energy                            =    -59.303182473 Eh
Exchange energy change after final integration =     -0.002898965 Eh
Total energy after final integration           =  -1668.851803882 Eh
Final COS-X integration done in                =    25.761 sec

----------------
TOTAL SCF ENERGY
----------------

Total Energy       :        -1668.85180388 Eh          -45411.76627 eV

Components:
Nuclear Repulsion  :          632.00353450 Eh           17197.69049 eV
Electronic Energy  :        -2300.85533839 Eh          -62609.45676 eV

One Electron Energy:        -3633.65418138 Eh          -98876.75707 eV
Two Electron Energy:         1332.79884300 Eh           36267.30031 eV

Virial components:
Potential Energy   :        -3207.60494251 Eh          -87283.36789 eV
Kinetic Energy     :         1538.75313862 Eh           41871.60161 eV
Virial Ratio       :            2.08454811


DFT components:
N(Alpha)           :       45.999994002642 electrons
N(Beta)            :       45.999994002642 electrons
N(Total)           :       91.999988005283 electrons
E(X)               :      -52.653895028131 Eh       
E(C)               :       -2.619479504903 Eh       
E(XC)              :      -55.273374533035 Eh       

---------------
SCF CONVERGENCE
---------------

  Last Energy change         ...   -1.9517e-08  Tolerance :   1.0000e-08
  Last MAX-Density change    ...    1.0791e-13  Tolerance :   1.0000e-07
  Last RMS-Density change    ...    8.7712e-16  Tolerance :   5.0000e-09
  Last Orbital Gradient      ...    6.6607e-07  Tolerance :   1.0000e-05
  Last Orbital Rotation      ...    2.6055e-06  Tolerance :   1.0000e-05

             **** THE GBW FILE WAS UPDATED (PbMACl3_mp2_5.orca.gbw) ****
             **** DENSITY FILE WAS UPDATED (PbMACl3_mp2_5.orca.scfp.tmp) ****
             **** ENERGY FILE WAS UPDATED (PbMACl3_mp2_5.orca.en.tmp) ****
----------------
ORBITAL ENERGIES
----------------

  NO   OCC          E(Eh)            E(eV) 
   0   2.0000    -102.916741     -2800.5069 
   1   2.0000    -102.834521     -2798.2696 
   2   2.0000    -102.832716     -2798.2204 
   3   2.0000     -14.962427      -407.1483 
   4   2.0000     -10.711172      -291.4658 
   5   2.0000      -9.939011      -270.4542 
   6   2.0000      -9.842244      -267.8211 
   7   2.0000      -9.839770      -267.7538 
   8   2.0000      -7.576930      -206.1787 
   9   2.0000      -7.572060      -206.0462 
  10   2.0000      -7.571901      -206.0419 
  11   2.0000      -7.479124      -203.5173 
  12   2.0000      -7.477861      -203.4829 
  13   2.0000      -7.477334      -203.4686 
  14   2.0000      -7.476682      -203.4508 
  15   2.0000      -7.475438      -203.4170 
  16   2.0000      -7.474898      -203.4023 
  17   2.0000      -5.792572      -157.6239 
  18   2.0000      -3.570599       -97.1609 
  19   2.0000      -3.562907       -96.9516 
  20   2.0000      -3.561961       -96.9259 
  21   2.0000      -1.141822       -31.0705 
  22   2.0000      -1.118548       -30.4372 
  23   2.0000      -0.969086       -26.3702 
  24   2.0000      -0.968350       -26.3501 
  25   2.0000      -0.958630       -26.0857 
  26   2.0000      -0.951555       -25.8931 
  27   2.0000      -0.902372       -24.5548 
  28   2.0000      -0.864346       -23.5201 
  29   2.0000      -0.849786       -23.1238 
  30   2.0000      -0.847306       -23.0564 
  31   2.0000      -0.671365       -18.2688 
  32   2.0000      -0.665629       -18.1127 
  33   2.0000      -0.603009       -16.4087 
  34   2.0000      -0.585698       -15.9376 
  35   2.0000      -0.523717       -14.2511 
  36   2.0000      -0.521730       -14.1970 
  37   2.0000      -0.453447       -12.3389 
  38   2.0000      -0.452703       -12.3187 
  39   2.0000      -0.385290       -10.4843 
  40   2.0000      -0.348694        -9.4884 
  41   2.0000      -0.344600        -9.3771 
  42   2.0000      -0.333655        -9.0792 
  43   2.0000      -0.332006        -9.0343 
  44   2.0000      -0.321895        -8.7592 
  45   2.0000      -0.273639        -7.4461 
  46   0.0000       0.021618         0.5883 
  47   0.0000       0.026984         0.7343 
  48   0.0000       0.035064         0.9541 
  49   0.0000       0.073688         2.0051 
  50   0.0000       0.089147         2.4258 
  51   0.0000       0.107319         2.9203 
  52   0.0000       0.112341         3.0570 
  53   0.0000       0.117755         3.2043 
  54   0.0000       0.134977         3.6729 
  55   0.0000       0.136304         3.7090 
  56   0.0000       0.150056         4.0832 
  57   0.0000       0.174837         4.7576 
  58   0.0000       0.213329         5.8050 
  59   0.0000       0.224911         6.1201 
  60   0.0000       0.234053         6.3689 
  61   0.0000       0.247425         6.7328 
  62   0.0000       0.251059         6.8317 
  63   0.0000       0.261275         7.1097 
  64   0.0000       0.275324         7.4920 
  65   0.0000       0.292672         7.9640 
  66   0.0000       0.293023         7.9736 
  67   0.0000       0.314875         8.5682 
  68   0.0000       0.329470         8.9653 
  69   0.0000       0.348480         9.4826 
  70   0.0000       0.371860        10.1188 
  71   0.0000       0.387732        10.5507 
  72   0.0000       0.390289        10.6203 
  73   0.0000       0.398548        10.8450 
  74   0.0000       0.399923        10.8824 
  75   0.0000       0.426738        11.6121 
  76   0.0000       0.447130        12.1670 
  77   0.0000       0.462902        12.5962 
  78   0.0000       0.469694        12.7810 
  79   0.0000       0.475712        12.9448 
  80   0.0000       0.481928        13.1139 
  81   0.0000       0.486349        13.2342 
  82   0.0000       0.496282        13.5045 
  83   0.0000       0.509588        13.8666 
  84   0.0000       0.520279        14.1575 
  85   0.0000       0.526137        14.3169 
  86   0.0000       0.534146        14.5348 
  87   0.0000       0.569275        15.4908 
  88   0.0000       0.570904        15.5351 
  89   0.0000       0.577089        15.7034 
  90   0.0000       0.593301        16.1446 
  91   0.0000       0.603902        16.4330 
  92   0.0000       0.610598        16.6152 
  93   0.0000       0.612919        16.6784 
  94   0.0000       0.629938        17.1415 
  95   0.0000       0.641241        17.4490 
  96   0.0000       0.653557        17.7842 
  97   0.0000       0.676518        18.4090 
  98   0.0000       0.688290        18.7293 
  99   0.0000       0.724160        19.7054 
 100   0.0000       0.737757        20.0754 
 101   0.0000       0.744998        20.2724 
 102   0.0000       0.768792        20.9199 
 103   0.0000       0.781131        21.2556 
 104   0.0000       0.791918        21.5492 
 105   0.0000       0.841110        22.8878 
 106   0.0000       0.849063        23.1042 
 107   0.0000       0.877551        23.8794 
 108   0.0000       0.898594        24.4520 
 109   0.0000       0.905153        24.6305 
 110   0.0000       0.922448        25.1011 
 111   0.0000       0.938964        25.5505 
 112   0.0000       0.942458        25.6456 
 113   0.0000       0.962382        26.1877 
 114   0.0000       1.012119        27.5412 
 115   0.0000       1.036948        28.2168 
 116   0.0000       1.060344        28.8534 
 117   0.0000       1.075182        29.2572 
 118   0.0000       1.088208        29.6116 
 119   0.0000       1.150748        31.3135 
 120   0.0000       1.161611        31.6090 
 121   0.0000       1.183814        32.2132 
 122   0.0000       1.187741        32.3201 
 123   0.0000       1.216910        33.1138 
 124   0.0000       1.225699        33.3530 
 125   0.0000       1.288529        35.0626 
 126   0.0000       1.299314        35.3561 
 127   0.0000       1.351418        36.7740 
 128   0.0000       1.381744        37.5992 
 129   0.0000       1.493858        40.6499 
 130   0.0000       1.517281        41.2873 
 131   0.0000       1.563049        42.5327 
 132   0.0000       1.586060        43.1589 
 133   0.0000       1.595190        43.4073 
 134   0.0000       1.601881        43.5894 
 135   0.0000       1.611703        43.8567 
 136   0.0000       1.739265        47.3278 
 137   0.0000       1.756934        47.8086 
 138   0.0000       1.790682        48.7269 
 139   0.0000       1.877749        51.0962 
 140   0.0000       1.887124        51.3512 
 141   0.0000       1.889075        51.4044 
 142   0.0000       1.898014        51.6476 
 143   0.0000       1.920745        52.2661 
 144   0.0000       1.928454        52.4759 
 145   0.0000       1.951225        53.0955 
 146   0.0000       1.962123        53.3921 
 147   0.0000       1.981587        53.9217 
 148   0.0000       1.987374        54.0792 
 149   0.0000       1.999437        54.4074 
 150   0.0000       2.002334        54.4863 
 151   0.0000       2.009211        54.6734 
 152   0.0000       2.011367        54.7321 
 153   0.0000       2.027266        55.1647 
 154   0.0000       2.045481        55.6604 
 155   0.0000       2.082128        56.6576 
 156   0.0000       2.097752        57.0827 
 157   0.0000       2.112247        57.4772 
 158   0.0000       2.136457        58.1360 
 159   0.0000       2.142423        58.2983 
 160   0.0000       2.147754        58.4434 
 161   0.0000       2.167185        58.9721 
 162   0.0000       2.175580        59.2005 
 163   0.0000       2.177833        59.2619 
 164   0.0000       2.179403        59.3046 
 165   0.0000       2.201869        59.9159 
 166   0.0000       2.207795        60.0772 
 167   0.0000       2.220469        60.4220 
 168   0.0000       2.230488        60.6947 
 169   0.0000       2.233556        60.7782 
 170   0.0000       2.240780        60.9747 
 171   0.0000       2.253340        61.3165 
 172   0.0000       2.260247        61.5045 
 173   0.0000       2.267988        61.7151 
 174   0.0000       2.273104        61.8543 
 175   0.0000       2.282274        62.1038 
 176   0.0000       2.294643        62.4404 
 177   0.0000       2.310688        62.8770 
 178   0.0000       2.324906        63.2639 
 179   0.0000       2.345015        63.8111 
 180   0.0000       2.365237        64.3614 
 181   0.0000       2.376380        64.6646 
 182   0.0000       2.380943        64.7887 
 183   0.0000       2.393763        65.1376 
 184   0.0000       2.407100        65.5005 
 185   0.0000       2.417047        65.7712 
 186   0.0000       2.433034        66.2062 
 187   0.0000       2.438035        66.3423 
 188   0.0000       2.442691        66.4690 
 189   0.0000       2.456315        66.8397 
 190   0.0000       2.470169        67.2167 
 191   0.0000       2.484010        67.5934 
 192   0.0000       2.493122        67.8413 
 193   0.0000       2.526484        68.7491 
 194   0.0000       2.548695        69.3535 
 195   0.0000       2.584003        70.3143 
 196   0.0000       2.585856        70.3647 
 197   0.0000       2.598422        70.7067 
 198   0.0000       2.608505        70.9810 
 199   0.0000       2.650836        72.1329 
 200   0.0000       2.688082        73.1464 
 201   0.0000       2.717558        73.9485 
 202   0.0000       2.748984        74.8037 
 203   0.0000       2.764235        75.2187 
 204   0.0000       2.787444        75.8502 
 205   0.0000       2.800084        76.1942 
 206   0.0000       2.806134        76.3588 
 207   0.0000       2.834969        77.1434 
 208   0.0000       2.867032        78.0159 
 209   0.0000       2.922141        79.5155 
 210   0.0000       3.021901        82.2301 
 211   0.0000       3.133174        85.2580 
 212   0.0000       3.136142        85.3388 
 213   0.0000       3.228300        87.8465 
 214   0.0000       3.237598        88.0995 
 215   0.0000       3.281558        89.2957 
 216   0.0000       3.313088        90.1537 
 217   0.0000       3.394126        92.3589 
 218   0.0000       3.558809        96.8401 
 219   0.0000       3.581924        97.4691 
 220   0.0000       3.585637        97.5701 
 221   0.0000       3.752801       102.1189 
 222   0.0000       3.774197       102.7011 
 223   0.0000       3.782110       102.9164 
 224   0.0000       3.926351       106.8414 
 225   0.0000       4.194601       114.1409 
 226   0.0000       4.202014       114.3426 
 227   0.0000       4.406540       119.9080 
 228   0.0000       4.447359       121.0188 
 229   0.0000       4.848938       131.9463 
 230   0.0000       4.849939       131.9735 
 231   0.0000       4.955250       134.8392 
 232   0.0000       4.965636       135.1218 
 233   0.0000       5.092782       138.5816 
 234   0.0000       5.112924       139.1297 
 235   0.0000       5.122142       139.3806 
 236   0.0000       5.320693       144.7834 
 237   0.0000       5.518739       150.1725 
 238   0.0000       5.526077       150.3722 
 239   0.0000       5.856285       159.3576 
 240   0.0000      11.039941       300.4121 
 241   0.0000      11.069823       301.2252 
 242   0.0000      11.081387       301.5399 
 243   0.0000      11.114416       302.4386 
 244   0.0000      11.128902       302.8328 
 245   0.0000      11.148997       303.3796 
 246   0.0000      11.169036       303.9249 
 247   0.0000      11.199897       304.7647 
 248   0.0000      11.553567       314.3886 
 249   0.0000      22.661454       616.6495 
 250   0.0000      25.265817       687.5178 
 251   0.0000      25.380483       690.6381 
 252   0.0000      25.628828       697.3959 
 253   0.0000      32.385267       881.2479 
 254   0.0000      35.577426       968.1110 
 255   0.0000      35.812929       974.5193 
 256   0.0000      35.886679       976.5262 
 257   0.0000      36.532944       994.1120 
 258   0.0000     123.685699      3365.6590 

                    ********************************
                    * MULLIKEN POPULATION ANALYSIS *
                    ********************************

-----------------------
MULLIKEN ATOMIC CHARGES
-----------------------
   0 C :   -0.253380
   1 N :   -0.303137
   2 H :    0.155053
   3 H :    0.164018
   4 H :    0.154675
   5 H :    0.281506
   6 H :    0.276103
   7 H :    0.285946
   8 Pb:    0.775264
   9 Cl:   -0.376099
  10 Cl:   -0.582223
  11 Cl:   -0.577727
Sum of atomic charges:   -0.0000000

--------------------------------
MULLIKEN REDUCED ORBITAL CHARGES
--------------------------------
  0 C s       :     3.274532  s :     3.274532
      pz      :     0.972793  p :     2.903833
      px      :     0.996734
      py      :     0.934307
      dz2     :     0.006836  d :     0.069016
      dxz     :     0.018483
      dyz     :     0.017913
      dx2y2   :     0.007516
      dxy     :     0.018268
      f0      :     0.000349  f :     0.005999
      f+1     :     0.000499
      f-1     :     0.000726
      f+2     :     0.000722
      f-2     :     0.002627
      f+3     :     0.000505
      f-3     :     0.000569
  1 N s       :     3.413285  s :     3.413285
      pz      :     1.288481  p :     3.840716
      px      :     1.277381
      py      :     1.274854
      dz2     :     0.005143  d :     0.046970
      dxz     :     0.012962
      dyz     :     0.011236
      dx2y2   :     0.005520
      dxy     :     0.012109
      f0      :     0.000121  f :     0.002166
      f+1     :     0.000159
      f-1     :     0.000197
      f+2     :     0.000211
      f-2     :     0.001149
      f+3     :     0.000154
      f-3     :     0.000176
  2 H s       :     0.823240  s :     0.823240
      pz      :     0.008357  p :     0.021707
      px      :     0.007694
      py      :     0.005656
  3 H s       :     0.814137  s :     0.814137
      pz      :     0.006967  p :     0.021844
      px      :     0.007393
      py      :     0.007484
  4 H s       :     0.823654  s :     0.823654
      pz      :     0.006729  p :     0.021671
      px      :     0.007338
      py      :     0.007604
  5 H s       :     0.676651  s :     0.676651
      pz      :     0.009874  p :     0.041843
      px      :     0.015251
      py      :     0.016718
  6 H s       :     0.685659  s :     0.685659
      pz      :     0.013225  p :     0.038238
      px      :     0.010058
      py      :     0.014955
  7 H s       :     0.669174  s :     0.669174
      pz      :     0.019093  p :     0.044881
      px      :     0.017878
      py      :     0.007910
  8 Pbs       :     3.836994  s :     3.836994
      pz      :     2.337457  p :     7.227610
      px      :     2.512387
      py      :     2.377766
      dz2     :     2.018307  d :    10.062217
      dxz     :     2.014012
      dyz     :     2.021998
      dx2y2   :     1.995796
      dxy     :     2.012104
      f0      :     0.019579  f :     0.097914
      f+1     :     0.011027
      f-1     :     0.007995
      f+2     :     0.015521
      f-2     :     0.001225
      f+3     :     0.014799
      f-3     :     0.027768
  9 Cls       :     5.904086  s :     5.904086
      pz      :     3.871440  p :    11.386248
      px      :     3.640220
      py      :     3.874588
      dz2     :     0.008756  d :     0.074600
      dxz     :     0.019679
      dyz     :     0.002262
      dx2y2   :     0.023576
      dxy     :     0.020326
      f0      :     0.001160  f :     0.011165
      f+1     :     0.001840
      f-1     :     0.000219
      f+2     :     0.001935
      f-2     :     0.000288
      f+3     :     0.002894
      f-3     :     0.002829
 10 Cls       :     5.955001  s :     5.955001
      pz      :     3.925279  p :    11.610637
      px      :     3.931088
      py      :     3.754271
      dz2     :     0.002528  d :     0.015960
      dxz     :     0.002675
      dyz     :     0.001936
      dx2y2   :     0.006175
      dxy     :     0.002646
      f0      :     0.000047  f :     0.000624
      f+1     :     0.000073
      f-1     :     0.000106
      f+2     :     0.000097
      f-2     :     0.000029
      f+3     :     0.000103
      f-3     :     0.000170
 11 Cls       :     5.956221  s :     5.956221
      pz      :     3.762782  p :    11.605927
      px      :     3.931158
      py      :     3.911987
      dz2     :     0.007955  d :     0.015028
      dxz     :     0.002631
      dyz     :     0.002082
      dx2y2   :     0.000487
      dxy     :     0.001873
      f0      :     0.000272  f :     0.000551
      f+1     :     0.000112
      f-1     :     0.000078
      f+2     :     0.000012
      f-2     :     0.000020
      f+3     :     0.000037
      f-3     :     0.000019


                     *******************************
                     * LOEWDIN POPULATION ANALYSIS *
                     *******************************

----------------------
LOEWDIN ATOMIC CHARGES
----------------------
   0 C :   -0.276414
   1 N :    0.079780
   2 H :    0.123600
   3 H :    0.127850
   4 H :    0.123148
   5 H :    0.160339
   6 H :    0.168812
   7 H :    0.149747
   8 Pb:   -0.369714
   9 Cl:    0.297705
  10 Cl:   -0.282819
  11 Cl:   -0.302034

-------------------------------
LOEWDIN REDUCED ORBITAL CHARGES
-------------------------------
  0 C s       :     2.853844  s :     2.853844
      pz      :     1.032107  p :     3.082848
      px      :     1.044098
      py      :     1.006643
      dz2     :     0.029619  d :     0.302795
      dxz     :     0.079779
      dyz     :     0.080537
      dx2y2   :     0.031360
      dxy     :     0.081501
      f0      :     0.005307  f :     0.036928
      f+1     :     0.003978
      f-1     :     0.005815
      f+2     :     0.004237
      f-2     :     0.007008
      f+3     :     0.004905
      f-3     :     0.005678
  1 N s       :     3.002131  s :     3.002131
      pz      :     1.254197  p :     3.751319
      px      :     1.250302
      py      :     1.246820
      dz2     :     0.016858  d :     0.157343
      dxz     :     0.041583
      dyz     :     0.039770
      dx2y2   :     0.018464
      dxy     :     0.040669
      f0      :     0.001455  f :     0.009427
      f+1     :     0.001112
      f-1     :     0.001396
      f+2     :     0.001027
      f-2     :     0.001687
      f+3     :     0.001233
      f-3     :     0.001516
  2 H s       :     0.814235  s :     0.814235
      pz      :     0.022976  p :     0.062165
      px      :     0.021520
      py      :     0.017669
  3 H s       :     0.809801  s :     0.809801
      pz      :     0.019444  p :     0.062348
      px      :     0.022397
      py      :     0.020508
  4 H s       :     0.814736  s :     0.814736
      pz      :     0.020665  p :     0.062117
      px      :     0.020618
      py      :     0.020834
  5 H s       :     0.712664  s :     0.712664
      pz      :     0.033557  p :     0.126997
      px      :     0.045000
      py      :     0.048440
  6 H s       :     0.719659  s :     0.719659
      pz      :     0.037325  p :     0.111529
      px      :     0.032236
      py      :     0.041968
  7 H s       :     0.713987  s :     0.713987
      pz      :     0.056551  p :     0.136266
      px      :     0.053102
      py      :     0.026612
  8 Pbs       :     3.514089  s :     3.514089
      pz      :     2.481935  p :     7.876250
      px      :     2.863463
      py      :     2.530852
      dz2     :     2.160988  d :    10.633901
      dxz     :     2.123052
      dyz     :     2.068029
      dx2y2   :     2.160699
      dxy     :     2.121134
      f0      :     0.067054  f :     0.345474
      f+1     :     0.039735
      f-1     :     0.022218
      f+2     :     0.054336
      f-2     :     0.003502
      f+3     :     0.059752
      f-3     :     0.098877
  9 Cls       :     5.444734  s :     5.444734
      pz      :     3.679852  p :    11.042322
      px      :     3.679950
      py      :     3.682521
      dz2     :     0.026524  d :     0.174822
      dxz     :     0.032764
      dyz     :     0.003760
      dx2y2   :     0.073446
      dxy     :     0.038327
      f0      :     0.003311  f :     0.040417
      f+1     :     0.008439
      f-1     :     0.000620
      f+2     :     0.005530
      f-2     :     0.000636
      f+3     :     0.013414
      f-3     :     0.008467
 10 Cls       :     5.774918  s :     5.774918
      pz      :     3.872869  p :    11.479451
      px      :     3.883698
      py      :     3.722883
      dz2     :     0.004775  d :     0.027105
      dxz     :     0.004239
      dyz     :     0.002135
      dx2y2   :     0.012949
      dxy     :     0.003008
      f0      :     0.000055  f :     0.001345
      f+1     :     0.000149
      f-1     :     0.000273
      f+2     :     0.000190
      f-2     :     0.000052
      f+3     :     0.000159
      f-3     :     0.000466
 11 Cls       :     5.785688  s :     5.785688
      pz      :     3.727480  p :    11.489929
      px      :     3.891718
      py      :     3.870731
      dz2     :     0.016658  d :     0.025229
      dxz     :     0.002615
      dyz     :     0.002496
      dx2y2   :     0.000563
      dxy     :     0.002897
      f0      :     0.000716  f :     0.001188
      f+1     :     0.000165
      f-1     :     0.000147
      f+2     :     0.000015
      f-2     :     0.000027
      f+3     :     0.000085
      f-3     :     0.000033


                      *****************************
                      * MAYER POPULATION ANALYSIS *
                      *****************************

  NA   - Mulliken gross atomic population
  ZA   - Total nuclear charge
  QA   - Mulliken gross atomic charge
  VA   - Mayer's total valence
  BVA  - Mayer's bonded valence
  FA   - Mayer's free valence

  ATOM       NA         ZA         QA         VA         BVA        FA
  0 C      6.2534     6.0000    -0.2534     3.8359     3.8359     0.0000
  1 N      7.3031     7.0000    -0.3031     3.3232     3.3232     0.0000
  2 H      0.8449     1.0000     0.1551     0.9624     0.9624     0.0000
  3 H      0.8360     1.0000     0.1640     0.9626     0.9626    -0.0000
  4 H      0.8453     1.0000     0.1547     0.9614     0.9614    -0.0000
  5 H      0.7185     1.0000     0.2815     1.0004     1.0004    -0.0000
  6 H      0.7239     1.0000     0.2761     0.9465     0.9465    -0.0000
  7 H      0.7141     1.0000     0.2859     0.9949     0.9949     0.0000
  8 Pb    21.2247    22.0000     0.7753     2.1547     2.1547     0.0000
  9 Cl    17.3761    17.0000    -0.3761     1.1394     1.1394    -0.0000
 10 Cl    17.5822    17.0000    -0.5822     0.7252     0.7252    -0.0000
 11 Cl    17.5777    17.0000    -0.5777     0.7352     0.7352    -0.0000

  Mayer bond orders larger than 0.1
B(  0-C ,  1-N ) :   0.9047 B(  0-C ,  2-H ) :   0.9706 B(  0-C ,  3-H ) :   0.9691 
B(  0-C ,  4-H ) :   0.9701 B(  1-N ,  5-H ) :   0.8010 B(  1-N ,  6-H ) :   0.8697 
B(  1-N ,  7-H ) :   0.7973 B(  5-H , 11-Cl) :   0.2005 B(  7-H , 10-Cl) :   0.1929 
B(  8-Pb,  9-Cl) :   1.0585 B(  8-Pb, 10-Cl) :   0.5318 B(  8-Pb, 11-Cl) :   0.5451 


-------
TIMINGS
-------

Total SCF time: 0 days 0 hours 3 min 43 sec 

Total time                  ....     223.353 sec
Sum of individual times     ....     196.690 sec  ( 88.1%)

Fock matrix formation       ....     192.271 sec  ( 86.1%)
  Coulomb formation         ....     160.626 sec  ( 83.5% of F)
  Split-RI-J                ....      11.084 sec  (  5.8% of F)
  Chain of spheres X        ....     175.269 sec  ( 91.2% of F)
  COS-X 1 center corr.      ....       0.000 sec  (  0.0% of F)
  XC integration            ....      31.714 sec  ( 16.5% of F)
    Basis function eval.    ....      10.062 sec  ( 31.7% of XC)
    Density eval.           ....       8.849 sec  ( 27.9% of XC)
    XC-Functional eval.     ....       1.915 sec  (  6.0% of XC)
    XC-Potential eval.      ....      10.306 sec  ( 32.5% of XC)
Diagonalization             ....       0.256 sec  (  0.1%)
Density matrix formation    ....       0.031 sec  (  0.0%)
Population analysis         ....       0.068 sec  (  0.0%)
Initial guess               ....       0.139 sec  (  0.1%)
Orbital Transformation      ....       0.000 sec  (  0.0%)
Orbital Orthonormalization  ....       0.136 sec  (  0.1%)
DIIS solution               ....       0.070 sec  (  0.0%)
SOSCF solution              ....       0.109 sec  (  0.0%)
Grid generation             ....       3.747 sec  (  1.7%)

------------------------------------------------------------------------------
                              ORCA MP2 CALCULATION
------------------------------------------------------------------------------


----------------------
RI-MP2 ENERGY+GRADIENT
----------------------
Dimension of the basis                    ...  259
Memory devoted to MP2                     ... 1000 MB   
Data format for buffers                   ... DOUBLE
Compression type for matrix containers    ... UNCOMPRESSED
Overall scaling of the MP2 energy         ...   2.700e-01 Eh
Calculating two index integrals           ... done (    0.012 sec)
Cholesky decomposition of the V-matrix    ... done
Cholesky decomposition of V**-1           ... done (    0.028 sec)

-----------------
RI-TRANSFORMATION (AUX index driven)
-----------------

Dimension of the orbital-basis         ... 259
Dimension of the aux-basis             ... 493
Transformation of internal MOs         ...    0-  45
Transformation of internal/external MOs...    0-  45 to   46- 258
Number Format for Storage              ... Double (8 Byte)
Integral mode                          ... Direct

First Phase: integral generation and transformation of MO indices
  Aux angular momentum 0               ... done (    0.464 sec)
  Aux angular momentum 1               ... done (    0.355 sec)
  Aux angular momentum 2               ... done (    0.404 sec)
  Aux angular momentum 3               ... done (    0.236 sec)
  Aux angular momentum 4               ... done (    0.206 sec)
Closing buffer VIJ ( 0.00 GB; CompressionRatio= 1.95)
Closing buffer VIA ( 0.04 GB; CompressionRatio= 1.00)
  Phase 1 completed in     1.765 sec
Second Phase: sorting and transformation of aux index

IJ-Transformation
Memory available                       ... 990 MB 
Max. # MO pairs treated in a batch     ... 46    
# of internal orbitals                 ... 46
# batches for internal orbitals        ... 1
Closing buffer IJV ( 0.00 GB; CompressionRatio= 1.00)
(ij|v) transformation done in     0.111 sec

IA-Transformation
Memory available                       ... 990 MB 
Max. # MO pairs treated in a batch     ... 46    
# of internal orbitals                 ... 46
# batches for internal orbitals        ... 1
Closing buffer IAV ( 0.04 GB; CompressionRatio= 1.00)
(ia|v) transformation done in     0.485 sec

  Phase 2 completed in     0.616 sec
RI-Integral transformation completed in     2.381 sec
Opening buffers                              ... done

Starting loop over batches of integrals:

Operator 0  - window                       ... (  0- 45)x( 46-258)
Operator 0  - Memory available             ...  1000 MB
Operator 0  - Memory needed per MO         ...   1.6 MB
Operator 0  - Number of orbitals per batch ... 46
Operator 0  - Number of batches            ... 1

OPERATOR  0   PASS   0:  MOs     0 ...   45
  Reading integrals       ... ok
  Internal MO   2
  Internal MO   5
  Internal MO   8
  Internal MO  11
  Internal MO  14
  Internal MO  17
  Internal MO  20
  Internal MO  23
  Internal MO  26
  Internal MO  29
  Internal MO  32
  Internal MO  35
  Internal MO  38
  Internal MO  41
  Internal MO  44
Closing buffer GIPV ( 0.04 GB; CompressionRatio= 1.00)
Time spent in pair loops =    52.043 sec

-----------------------------------------------
 RI-MP2 CORRELATION ENERGY:     -0.580347624 Eh
-----------------------------------------------


---------------------
MP2 DENSITY FORMATION
---------------------

Completing the external part of the density      ... done
Storing the unrelaxed density                    ... done

Calculating the xc-kernel                        ... done
Calculating G(D)                                 ... done
Completing the Lagrangian                        ... done
Solving the Z-vector equations                   ... 

------------------------------------------------------------------------------
                           ORCA CP-SCF CALCULATION
------------------------------------------------------------------------------

Input orbitals are from        ... PbMACl3_mp2_5.orca.gbw
Input Perturbation             ... PbMACl3_mp2_5.orca.pin.tmp
Wavefunction output            ... PbMACl3_mp2_5.orca.pout.tmp
Perturbation mode              ... Real perturbation
Solver                         ... DIIS
   MaxDIIS                     ... 20
   Levelshift                  ...    3.000e-01 Eh
Max. number of iterations      ... 128
Convergence tolerance          ... 1.000e-08
Integral handling              ... Direct
COSX GridX                     ... 1
Number of perturbations        ... 1
Number of operators            ... 1
Orbital ranges used for CP-SCF:
 Operator 0:  Orbitals   0... 45  to  46...258
DFT calculation                         ... on
Exchange functional (SCF)               ... B88
Exchange functional (CP-SCF)            ... B88
   X-Alpha parameter    XAlpha (SCF)    ...  0.666667
   X-Alpha parameter    XAlpha (CP-SCF) ...  0.666667
   Becke's b parameter  XBeta (SCF)     ...  0.004200
   Becke's b parameter  XBeta (CP-SCF)  ...  0.004200
Correlation functional (SCF)            ... LYP
Correlation functional (CP-SCF)         ... LYP
 LDA part of GGA corr.  LDAOpt (SCF)    ... VWN-3
 LDA part of GGA corr.  LDAOpt (CP-SCF) ... VWN-3
Hybrid DFT                              ... on
   Exchange mixing (SCF)                ...  0.530
   Exchange mixing (CP-SCF)             ...  0.530
   GGA exch. scaling(SCF)               ...  0.470
   GGA exch. scaling (CP-SCF)           ...  0.470
   GGA corr. scaling (SCF)              ...  0.730
   GGA corr. scaling (CP-SCF)           ...  0.730
The RIJCOSX approximation is active
Variables per vector in CP-SCF ... 9798
Number of vectors sought       ... 1
Calculating the xc-kernel      ... done

Solving the CP-SCF equations by a DIIS algorithm

-----------------
CP-SCF ITERATIONS
-----------------
  Iteration   0: MaxR=  0.079668511
  Iteration   1: MaxR=  0.034997867
  Iteration   2: MaxR=  0.010480169
  Iteration   3: MaxR=  0.004100768
  Iteration   4: MaxR=  0.001623135
  Iteration   5: MaxR=  0.000584877
  Iteration   6: MaxR=  0.000271606
  Iteration   7: MaxR=  0.000088917
  Iteration   8: MaxR=  0.000040552
  Iteration   9: MaxR=  0.000013309
  Iteration  10: MaxR=  0.000005680
  Iteration  11: MaxR=  0.000001912
  Iteration  12: MaxR=  0.000000713
  Iteration  13: MaxR=  0.000000213
  Iteration  14: MaxR=  0.000000070
  Iteration  15: MaxR=  0.000000024
  Iteration  16: MaxR=  0.000000008
                              *** THE CP-SCF HAS CONVERGED *** 
done
Finalizing the relaxed density                   ... done
Transforming P to the AO basis                   ... done
Storing the relaxed density                      ... done

------------------------------------
ENERGY WEIGHTED DENSITY FINALIZATION
------------------------------------

Gathering the parts of the W-matrix              ... done
Forming the Z-density                            ... done
Transforming Z to the AO basis                   ... done
Calculating G(Z)                                 ... done
Finalizing the W-matrix                          ... done
Transforming W to the AO basis and storing       ... done
Entering the RIJONX and RIJCOSX sections
Starting the three-index derivative integrals:
Operator 0  - Memory available             ...  1000 MB
Operator 0  - Memory needed per MO         ...   1.0 MB
Operator 0  - Number of orbitals per batch ... 46
Operator 0  - Number of batches            ... 1

OPERATOR  0   PASS   0:  MOs     0 ...   45

----------------------------------
MP2 DERIVATIVE INTEGRAL GENERATION
----------------------------------


Input Correlated Electron Density   ... PbMACl3_mp2_5.orca.pmp2re
Input Energy Weighted Density       ... PbMACl3_mp2_5.orca.wmp2.tmp
Input SCF Electron Density          ... PbMACl3_mp2_5.orca.scfp.tmp

One-Electron Terms    ...
  ECP gradient                                           ... One-Electron Terms done

-----------------------------------------------------------
MP2 COSX Grid Generation
-----------------------------------------------------------

General Integration Accuracy     IntAcc      ...  4.340
Radial Grid Type                 RadialGrid  ... Gauss-Chebyshev
Angular Grid (max. acc.)         AngularGrid ... Lebedev-302
Angular grid pruning method      GridPruning ... 3 (G Style)
Weight generation scheme         WeightScheme... Becke
Basis function cutoff            BFCut       ...    1.0000e-11
Integration weight cutoff        WCut        ...    1.0000e-14
Grids for H and He will be reduced by one unit

# of grid points (after initial pruning)     ...  57718 (   0.0 sec)
# of grid points (after weights+screening)   ...  54333 (   0.1 sec)
nearest neighbour list constructed           ...    0.0 sec
Grid point re-assignment to atoms done       ...    0.0 sec
Grid point division into batches done        ...    0.2 sec
Reduced shell lists constructed in    1.0 sec

Total number of grid points                  ...    54333
Total number of batches                      ...      854
Average number of points per batch           ...       63
Average number of grid points per atom       ...     4528
Average number of shells per batch           ...    57.02 (56.46%)
Average number of basis functions per batch  ...   151.88 (58.64%)
Average number of large shells per batch     ...    43.45 (76.21%)
Average number of large basis fcns per batch ...   112.88 (74.32%)
Maximum spatial batch extension              ...  35.78, 31.21, 30.73 au
Average spatial batch extension              ...   3.08,  3.02,  3.04 au

Overlap Fitting                  UseSFitting ... on
Two electron COSX terms .... 
Integration Timings:
Total Time                  =   106.3 sec
Basis fcn evaluation        =     0.3 sec
Density evaluation          =     1.1 sec
Integral evaluation         =   102.7 sec
K(P) evaluation             =     0.9 sec
                          .... COSX two electron terms done
COSX two-electron contribution to the gradient
     0:    -0.019419    -0.022090    -0.022019
     1:     0.047485     0.066518     0.061281
     2:     0.100179    -0.082017     0.106760
     3:    -0.105181     0.098592     0.089923
     4:     0.095231     0.098295    -0.096551
     5:    -0.104078    -0.104542     0.092696
     6:     0.108094    -0.124290    -0.113248
     7:    -0.109085     0.079766    -0.113680
     8:    -0.054350    -0.060119    -0.039617
     9:     0.073925     0.006865    -0.006384
    10:    -0.015507     0.050402    -0.014920
    11:    -0.017503    -0.007717     0.055622
Exchange-correlation gradient    ... done
Dispersion correction            ... 
Entering the calculation of the dispersion correction...

Checking the input atom types...

Done
done

                *********************************************
                * UNRELAXED MP2 DENSITY POPULATION ANALYSIS *
                *********************************************

------------------------------------------------------------------------------
                           ORCA POPULATION ANALYSIS
------------------------------------------------------------------------------
Input electron density              ... PbMACl3_mp2_5.orca.pmp2ur
BaseName (.gbw .S,...)              ... PbMACl3_mp2_5.orca

                    ********************************
                    * MULLIKEN POPULATION ANALYSIS *
                    ********************************

-----------------------
MULLIKEN ATOMIC CHARGES
-----------------------
   0 C :   -0.257876
   1 N :   -0.302155
   2 H :    0.156075
   3 H :    0.165054
   4 H :    0.155704
   5 H :    0.280110
   6 H :    0.275604
   7 H :    0.284714
   8 Pb:    0.763314
   9 Cl:   -0.372243
  10 Cl:   -0.576509
  11 Cl:   -0.571792
Sum of atomic charges:   -0.0000000

--------------------------------
MULLIKEN REDUCED ORBITAL CHARGES
--------------------------------
  0 C s       :     3.273321  s :     3.273321
      pz      :     0.971410  p :     2.899846
      px      :     0.995218
      py      :     0.933218
      dz2     :     0.008861  d :     0.077570
      dxz     :     0.020046
      dyz     :     0.019380
      dx2y2   :     0.009515
      dxy     :     0.019769
      f0      :     0.000506  f :     0.007139
      f+1     :     0.000674
      f-1     :     0.000897
      f+2     :     0.000904
      f-2     :     0.002750
      f+3     :     0.000671
      f-3     :     0.000736
  1 N s       :     3.410973  s :     3.410973
      pz      :     1.284913  p :     3.830139
      px      :     1.273964
      py      :     1.271261
      dz2     :     0.007435  d :     0.057840
      dxz     :     0.015058
      dyz     :     0.013347
      dx2y2   :     0.007810
      dxy     :     0.014190
      f0      :     0.000264  f :     0.003203
      f+1     :     0.000310
      f-1     :     0.000349
      f+2     :     0.000366
      f-2     :     0.001287
      f+3     :     0.000301
      f-3     :     0.000325
  2 H s       :     0.821204  s :     0.821204
      pz      :     0.008680  p :     0.022721
      px      :     0.008026
      py      :     0.006014
  3 H s       :     0.812106  s :     0.812106
      pz      :     0.007298  p :     0.022840
      px      :     0.007729
      py      :     0.007813
  4 H s       :     0.821610  s :     0.821610
      pz      :     0.007078  p :     0.022686
      px      :     0.007673
      py      :     0.007935
  5 H s       :     0.677468  s :     0.677468
      pz      :     0.010076  p :     0.042422
      px      :     0.015434
      py      :     0.016913
  6 H s       :     0.685510  s :     0.685510
      pz      :     0.013444  p :     0.038886
      px      :     0.010272
      py      :     0.015169
  7 H s       :     0.669824  s :     0.669824
      pz      :     0.019266  p :     0.045461
      px      :     0.018055
      py      :     0.008141
  8 Pbs       :     3.821774  s :     3.821774
      pz      :     2.346145  p :     7.245860
      px      :     2.514355
      py      :     2.385360
      dz2     :     2.012819  d :    10.035860
      dxz     :     2.008820
      dyz     :     2.016583
      dx2y2   :     1.990723
      dxy     :     2.006916
      f0      :     0.024569  f :     0.133193
      f+1     :     0.016129
      f-1     :     0.013165
      f+2     :     0.020521
      f-2     :     0.006430
      f+3     :     0.019761
      f-3     :     0.032617
  9 Cls       :     5.899692  s :     5.899692
      pz      :     3.856741  p :    11.344725
      px      :     3.628197
      py      :     3.859786
      dz2     :     0.016530  d :     0.113503
      dxz     :     0.027512
      dyz     :     0.010366
      dx2y2   :     0.030866
      dxy     :     0.028229
      f0      :     0.001584  f :     0.014323
      f+1     :     0.002302
      f-1     :     0.000614
      f+2     :     0.002393
      f-2     :     0.000758
      f+3     :     0.003356
      f-3     :     0.003316
 10 Cls       :     5.950572  s :     5.950572
      pz      :     3.910763  p :    11.567197
      px      :     3.916638
      py      :     3.739796
      dz2     :     0.010395  d :     0.055384
      dxz     :     0.010561
      dyz     :     0.009864
      dx2y2   :     0.014038
      dxy     :     0.010527
      f0      :     0.000433  f :     0.003357
      f+1     :     0.000458
      f-1     :     0.000494
      f+2     :     0.000492
      f-2     :     0.000417
      f+3     :     0.000500
      f-3     :     0.000563
 11 Cls       :     5.951749  s :     5.951749
      pz      :     3.748180  p :    11.562568
      px      :     3.916840
      py      :     3.897548
      dz2     :     0.015764  d :     0.054216
      dxz     :     0.010468
      dyz     :     0.009979
      dx2y2   :     0.008300
      dxy     :     0.009705
      f0      :     0.000668  f :     0.003259
      f+1     :     0.000509
      f-1     :     0.000475
      f+2     :     0.000393
      f-2     :     0.000404
      f+3     :     0.000415
      f-3     :     0.000395


                     *******************************
                     * LOEWDIN POPULATION ANALYSIS *
                     *******************************

----------------------
LOEWDIN ATOMIC CHARGES
----------------------
   0 C :   -0.279418
   1 N :    0.078923
   2 H :    0.124329
   3 H :    0.128603
   4 H :    0.123882
   5 H :    0.159672
   6 H :    0.168495
   7 H :    0.149179
   8 Pb:   -0.373495
   9 Cl:    0.295889
  10 Cl:   -0.278608
  11 Cl:   -0.297451

-------------------------------
LOEWDIN REDUCED ORBITAL CHARGES
-------------------------------
  0 C s       :     2.853236  s :     2.853236
      pz      :     1.029728  p :     3.075805
      px      :     1.041650
      py      :     1.004427
      dz2     :     0.031407  d :     0.311687
      dxz     :     0.081583
      dyz     :     0.082298
      dx2y2   :     0.033123
      dxy     :     0.083276
      f0      :     0.005535  f :     0.038690
      f+1     :     0.004192
      f-1     :     0.006023
      f+2     :     0.004450
      f-2     :     0.007468
      f+3     :     0.005133
      f-3     :     0.005889
  1 N s       :     3.001618  s :     3.001618
      pz      :     1.250402  p :     3.739916
      px      :     1.246552
      py      :     1.242962
      dz2     :     0.018883  d :     0.168774
      dxz     :     0.044051
      dyz     :     0.042238
      dx2y2   :     0.020487
      dxy     :     0.043116
      f0      :     0.001635  f :     0.010769
      f+1     :     0.001287
      f-1     :     0.001569
      f+2     :     0.001203
      f-2     :     0.001972
      f+3     :     0.001415
      f-3     :     0.001689
  2 H s       :     0.811660  s :     0.811660
      pz      :     0.023624  p :     0.064011
      px      :     0.022145
      py      :     0.018243
  3 H s       :     0.807235  s :     0.807235
      pz      :     0.020015  p :     0.064162
      px      :     0.023031
      py      :     0.021116
  4 H s       :     0.812155  s :     0.812155
      pz      :     0.021288  p :     0.063963
      px      :     0.021222
      py      :     0.021454
  5 H s       :     0.711998  s :     0.711998
      pz      :     0.033986  p :     0.128330
      px      :     0.045433
      py      :     0.048911
  6 H s       :     0.718497  s :     0.718497
      pz      :     0.037802  p :     0.113008
      px      :     0.032723
      py      :     0.042483
  7 H s       :     0.713280  s :     0.713280
      pz      :     0.056993  p :     0.137540
      px      :     0.053514
      py      :     0.027034
  8 Pbs       :     3.501907  s :     3.501907
      pz      :     2.489194  p :     7.887064
      px      :     2.860998
      py      :     2.536873
      dz2     :     2.154962  d :    10.604365
      dxz     :     2.116790
      dyz     :     2.062479
      dx2y2   :     2.155284
      dxy     :     2.114850
      f0      :     0.071735  f :     0.380159
      f+1     :     0.044993
      f-1     :     0.027393
      f+2     :     0.059149
      f-2     :     0.008804
      f+3     :     0.064845
      f-3     :     0.103241
  9 Cls       :     5.441459  s :     5.441459
      pz      :     3.667007  p :    11.004295
      px      :     3.667748
      py      :     3.669540
      dz2     :     0.034444  d :     0.214465
      dxz     :     0.040675
      dyz     :     0.011751
      dx2y2   :     0.081371
      dxy     :     0.046224
      f0      :     0.003772  f :     0.043892
      f+1     :     0.008950
      f-1     :     0.001022
      f+2     :     0.006043
      f-2     :     0.001111
      f+3     :     0.013962
      f-3     :     0.009032
 10 Cls       :     5.770566  s :     5.770566
      pz      :     3.858657  p :    11.437250
      px      :     3.869492
      py      :     3.709100
      dz2     :     0.012684  d :     0.066663
      dxz     :     0.012131
      dyz     :     0.010050
      dx2y2   :     0.020895
      dxy     :     0.010903
      f0      :     0.000444  f :     0.004129
      f+1     :     0.000539
      f-1     :     0.000671
      f+2     :     0.000592
      f-2     :     0.000444
      f+3     :     0.000565
      f-3     :     0.000874
 11 Cls       :     5.781284  s :     5.781284
      pz      :     3.713626  p :    11.447674
      px      :     3.877568
      py      :     3.856480
      dz2     :     0.024603  d :     0.064554
      dxz     :     0.010442
      dyz     :     0.010350
      dx2y2   :     0.008404
      dxy     :     0.010755
      f0      :     0.001133  f :     0.003939
      f+1     :     0.000568
      f-1     :     0.000550
      f+2     :     0.000398
      f-2     :     0.000413
      f+3     :     0.000466
      f-3     :     0.000411


                      *****************************
                      * MAYER POPULATION ANALYSIS *
                      *****************************

  NA   - Mulliken gross atomic population
  ZA   - Total nuclear charge
  QA   - Mulliken gross atomic charge
  VA   - Mayer's total valence
  BVA  - Mayer's bonded valence
  FA   - Mayer's free valence

  ATOM       NA         ZA         QA         VA         BVA        FA
  0 C      6.2579     6.0000    -0.2579     3.8814     3.7669     0.1145
  1 N      7.3022     7.0000    -0.3022     3.3970     3.2535     0.1435
  2 H      0.8439     1.0000     0.1561     0.9651     0.9466     0.0185
  3 H      0.8349     1.0000     0.1651     0.9651     0.9469     0.0182
  4 H      0.8443     1.0000     0.1557     0.9641     0.9456     0.0185
  5 H      0.7199     1.0000     0.2801     1.0031     0.9817     0.0213
  6 H      0.7244     1.0000     0.2756     0.9488     0.9286     0.0202
  7 H      0.7153     1.0000     0.2847     0.9973     0.9766     0.0207
  8 Pb    21.2367    22.0000     0.7633     2.4507     2.0973     0.3534
  9 Cl    17.3722    17.0000    -0.3722     1.3564     1.1098     0.2466
 10 Cl    17.5765    17.0000    -0.5765     0.9635     0.7043     0.2592
 11 Cl    17.5718    17.0000    -0.5718     0.9737     0.7137     0.2599

  Mayer bond orders larger than 0.1
B(  0-C ,  1-N ) :   0.8822 B(  0-C ,  2-H ) :   0.9555 B(  0-C ,  3-H ) :   0.9540 
B(  0-C ,  4-H ) :   0.9549 B(  1-N ,  5-H ) :   0.7863 B(  1-N ,  6-H ) :   0.8536 
B(  1-N ,  7-H ) :   0.7830 B(  5-H , 11-Cl) :   0.1968 B(  7-H , 10-Cl) :   0.1894 
B(  8-Pb,  9-Cl) :   1.0324 B(  8-Pb, 10-Cl) :   0.5167 B(  8-Pb, 11-Cl) :   0.5294 



                *******************************************
                * RELAXED MP2 DENSITY POPULATION ANALYSIS *
                *******************************************

------------------------------------------------------------------------------
                           ORCA POPULATION ANALYSIS
------------------------------------------------------------------------------
Input electron density              ... PbMACl3_mp2_5.orca.pmp2re
BaseName (.gbw .S,...)              ... PbMACl3_mp2_5.orca

                    ********************************
                    * MULLIKEN POPULATION ANALYSIS *
                    ********************************

-----------------------
MULLIKEN ATOMIC CHARGES
-----------------------
   0 C :   -0.276066
   1 N :   -0.297782
   2 H :    0.160003
   3 H :    0.168721
   4 H :    0.159645
   5 H :    0.273243
   6 H :    0.271810
   7 H :    0.277527
   8 Pb:    0.710830
   9 Cl:   -0.349281
  10 Cl:   -0.551795
  11 Cl:   -0.546855
Sum of atomic charges:   -0.0000000

--------------------------------
MULLIKEN REDUCED ORBITAL CHARGES
--------------------------------
  0 C s       :     3.276654  s :     3.276654
      pz      :     0.977754  p :     2.919098
      px      :     1.001452
      py      :     0.939891
      dz2     :     0.009069  d :     0.073335
      dxz     :     0.018485
      dyz     :     0.017851
      dx2y2   :     0.009698
      dxy     :     0.018232
      f0      :     0.000488  f :     0.006979
      f+1     :     0.000666
      f-1     :     0.000884
      f+2     :     0.000896
      f-2     :     0.002669
      f+3     :     0.000656
      f-3     :     0.000721
  1 N s       :     3.411575  s :     3.411575
      pz      :     1.283864  p :     3.826630
      px      :     1.272802
      py      :     1.269964
      dz2     :     0.007597  d :     0.056429
      dxz     :     0.014549
      dyz     :     0.012705
      dx2y2   :     0.007979
      dxy     :     0.013598
      f0      :     0.000261  f :     0.003148
      f+1     :     0.000309
      f-1     :     0.000350
      f+2     :     0.000366
      f-2     :     0.001240
      f+3     :     0.000297
      f-3     :     0.000326
  2 H s       :     0.817642  s :     0.817642
      pz      :     0.008501  p :     0.022355
      px      :     0.007887
      py      :     0.005967
  3 H s       :     0.808820  s :     0.808820
      pz      :     0.007198  p :     0.022459
      px      :     0.007584
      py      :     0.007677
  4 H s       :     0.818035  s :     0.818035
      pz      :     0.006972  p :     0.022321
      px      :     0.007554
      py      :     0.007795
  5 H s       :     0.684777  s :     0.684777
      pz      :     0.009989  p :     0.041981
      px      :     0.015255
      py      :     0.016737
  6 H s       :     0.689688  s :     0.689688
      pz      :     0.013310  p :     0.038502
      px      :     0.010197
      py      :     0.014995
  7 H s       :     0.677466  s :     0.677466
      pz      :     0.019040  p :     0.045007
      px      :     0.017841
      py      :     0.008126
  8 Pbs       :     3.849697  s :     3.849697
      pz      :     2.365385  p :     7.272537
      px      :     2.508461
      py      :     2.398691
      dz2     :     2.010820  d :    10.034869
      dxz     :     2.009447
      dyz     :     2.017735
      dx2y2   :     1.989603
      dxy     :     2.007265
      f0      :     0.024148  f :     0.132067
      f+1     :     0.016087
      f-1     :     0.013021
      f+2     :     0.020445
      f-2     :     0.006414
      f+3     :     0.019658
      f-3     :     0.032294
  9 Cls       :     5.896821  s :     5.896821
      pz      :     3.848137  p :    11.321887
      px      :     3.623163
      py      :     3.850587
      dz2     :     0.016915  d :     0.116139
      dxz     :     0.028056
      dyz     :     0.010517
      dx2y2   :     0.031653
      dxy     :     0.028997
      f0      :     0.001595  f :     0.014434
      f+1     :     0.002321
      f-1     :     0.000617
      f+2     :     0.002410
      f-2     :     0.000765
      f+3     :     0.003387
      f-3     :     0.003337
 10 Cls       :     5.951190  s :     5.951190
      pz      :     3.903434  p :    11.541661
      px      :     3.910298
      py      :     3.727929
      dz2     :     0.010422  d :     0.055565
      dxz     :     0.010674
      dyz     :     0.009903
      dx2y2   :     0.013998
      dxy     :     0.010568
      f0      :     0.000435  f :     0.003379
      f+1     :     0.000462
      f-1     :     0.000496
      f+2     :     0.000498
      f-2     :     0.000419
      f+3     :     0.000503
      f-3     :     0.000566
 11 Cls       :     5.952479  s :     5.952479
      pz      :     3.736599  p :    11.536811
      px      :     3.910788
      py      :     3.889424
      dz2     :     0.015662  d :     0.054288
      dxz     :     0.010473
      dyz     :     0.010065
      dx2y2   :     0.008311
      dxy     :     0.009776
      f0      :     0.000671  f :     0.003278
      f+1     :     0.000513
      f-1     :     0.000480
      f+2     :     0.000394
      f-2     :     0.000405
      f+3     :     0.000418
      f-3     :     0.000397


                     *******************************
                     * LOEWDIN POPULATION ANALYSIS *
                     *******************************

----------------------
LOEWDIN ATOMIC CHARGES
----------------------
   0 C :   -0.289007
   1 N :    0.074836
   2 H :    0.126411
   3 H :    0.130592
   4 H :    0.125984
   5 H :    0.157622
   6 H :    0.167474
   7 H :    0.147040
   8 Pb:   -0.391157
   9 Cl:    0.297940
  10 Cl:   -0.264824
  11 Cl:   -0.282912

-------------------------------
LOEWDIN REDUCED ORBITAL CHARGES
-------------------------------
  0 C s       :     2.854538  s :     2.854538
      pz      :     1.034074  p :     3.088892
      px      :     1.045939
      py      :     1.008879
      dz2     :     0.031634  d :     0.307121
      dxz     :     0.080017
      dyz     :     0.080539
      dx2y2   :     0.033280
      dxy     :     0.081651
      f0      :     0.005521  f :     0.038456
      f+1     :     0.004167
      f-1     :     0.006002
      f+2     :     0.004417
      f-2     :     0.007370
      f+3     :     0.005099
      f-3     :     0.005880
  1 N s       :     3.003600  s :     3.003600
      pz      :     1.251187  p :     3.741993
      px      :     1.247357
      py      :     1.243449
      dz2     :     0.019146  d :     0.168726
      dxz     :     0.043949
      dyz     :     0.041964
      dx2y2   :     0.020764
      dxy     :     0.042903
      f0      :     0.001651  f :     0.010846
      f+1     :     0.001294
      f-1     :     0.001579
      f+2     :     0.001205
      f-2     :     0.001991
      f+3     :     0.001424
      f-3     :     0.001702
  2 H s       :     0.809473  s :     0.809473
      pz      :     0.023615  p :     0.064116
      px      :     0.022166
      py      :     0.018334
  3 H s       :     0.805187  s :     0.805187
      pz      :     0.020054  p :     0.064221
      px      :     0.023033
      py      :     0.021134
  4 H s       :     0.809951  s :     0.809951
      pz      :     0.021332  p :     0.064065
      px      :     0.021255
      py      :     0.021477
  5 H s       :     0.714096  s :     0.714096
      pz      :     0.034003  p :     0.128282
      px      :     0.045377
      py      :     0.048902
  6 H s       :     0.719541  s :     0.719541
      pz      :     0.037778  p :     0.112984
      px      :     0.032749
      py      :     0.042457
  7 H s       :     0.715551  s :     0.715551
      pz      :     0.056921  p :     0.137409
      px      :     0.053422
      py      :     0.027066
  8 Pbs       :     3.516528  s :     3.516528
      pz      :     2.501941  p :     7.901464
      px      :     2.855398
      py      :     2.544125
      dz2     :     2.151321  d :    10.594796
      dxz     :     2.115317
      dyz     :     2.062916
      dx2y2   :     2.152222
      dxy     :     2.113019
      f0      :     0.071023  f :     0.378369
      f+1     :     0.045230
      f-1     :     0.027068
      f+2     :     0.058658
      f-2     :     0.008764
      f+3     :     0.065274
      f-3     :     0.102352
  9 Cls       :     5.444584  s :     5.444584
      pz      :     3.662175  p :    10.991877
      px      :     3.665551
      py      :     3.664151
      dz2     :     0.035449  d :     0.221216
      dxz     :     0.042027
      dyz     :     0.011918
      dx2y2   :     0.084090
      dxy     :     0.047731
      f0      :     0.003824  f :     0.044383
      f+1     :     0.009027
      f-1     :     0.001031
      f+2     :     0.006128
      f-2     :     0.001130
      f+3     :     0.014097
      f-3     :     0.009146
 10 Cls       :     5.773629  s :     5.773629
      pz      :     3.853398  p :    11.419512
      px      :     3.864961
      py      :     3.701153
      dz2     :     0.012825  d :     0.067494
      dxz     :     0.012282
      dyz     :     0.010170
      dx2y2   :     0.021235
      dxy     :     0.010982
      f0      :     0.000448  f :     0.004189
      f+1     :     0.000543
      f-1     :     0.000683
      f+2     :     0.000602
      f-2     :     0.000447
      f+3     :     0.000572
      f-3     :     0.000894
 11 Cls       :     5.784325  s :     5.784325
      pz      :     3.705559  p :    11.429338
      px      :     3.873182
      py      :     3.850597
      dz2     :     0.025040  d :     0.065255
      dxz     :     0.010480
      dyz     :     0.010458
      dx2y2   :     0.008414
      dxy     :     0.010864
      f0      :     0.001166  f :     0.003993
      f+1     :     0.000576
      f-1     :     0.000557
      f+2     :     0.000398
      f-2     :     0.000414
      f+3     :     0.000470
      f-3     :     0.000412


                      *****************************
                      * MAYER POPULATION ANALYSIS *
                      *****************************

  NA   - Mulliken gross atomic population
  ZA   - Total nuclear charge
  QA   - Mulliken gross atomic charge
  VA   - Mayer's total valence
  BVA  - Mayer's bonded valence
  FA   - Mayer's free valence

  ATOM       NA         ZA         QA         VA         BVA        FA
  0 C      6.2761     6.0000    -0.2761     3.8828     3.7686     0.1142
  1 N      7.2978     7.0000    -0.2978     3.4014     3.2582     0.1432
  2 H      0.8400     1.0000     0.1600     0.9640     0.9456     0.0184
  3 H      0.8313     1.0000     0.1687     0.9640     0.9459     0.0181
  4 H      0.8404     1.0000     0.1596     0.9631     0.9447     0.0184
  5 H      0.7268     1.0000     0.2732     1.0097     0.9885     0.0212
  6 H      0.7282     1.0000     0.2718     0.9537     0.9336     0.0200
  7 H      0.7225     1.0000     0.2775     1.0042     0.9836     0.0206
  8 Pb    21.2892    22.0000     0.7108     2.5317     2.1832     0.3485
  9 Cl    17.3493    17.0000    -0.3493     1.4028     1.1573     0.2455
 10 Cl    17.5518    17.0000    -0.5518     1.0072     0.7493     0.2579
 11 Cl    17.5469    17.0000    -0.5469     1.0176     0.7591     0.2586

  Mayer bond orders larger than 0.1
B(  0-C ,  1-N ) :   0.8900 B(  0-C ,  2-H ) :   0.9526 B(  0-C ,  3-H ) :   0.9513 
B(  0-C ,  4-H ) :   0.9522 B(  1-N ,  5-H ) :   0.7820 B(  1-N ,  6-H ) :   0.8497 
B(  1-N ,  7-H ) :   0.7790 B(  5-H , 11-Cl) :   0.2079 B(  7-H , 10-Cl) :   0.2001 
B(  8-Pb,  9-Cl) :   1.0646 B(  8-Pb, 10-Cl) :   0.5414 B(  8-Pb, 11-Cl) :   0.5550 



-------
TIMINGS
-------

Total time                :  509.457 sec
Integral trafo            :    2.390 sec (  0.5%)
I/O of integrals          :    0.111 sec (  0.0%)
K(i,j) Operators          :    8.523 sec (  1.7%)
T(i,j) pair energies      :    1.182 sec (  0.2%)
V-calculation             :    0.012 sec (  0.0%)
V**(-1/2)                 :    0.028 sec (  0.0%)
Gamma(ia|P)               :    8.267 sec (  1.6%)
Gamma-Trafo               :    1.102 sec (  0.2%)
D(virtual)                :    3.685 sec (  0.7%)
D(internal)               :    3.598 sec (  0.7%)
W(virtual)                :    7.366 sec (  1.4%)
W(internal)               :   12.443 sec (  2.4%)
L(virtual)                :    5.339 sec (  1.0%)
L(internal)               :    0.184 sec (  0.0%)
G(D)                      :   15.357 sec (  3.0%)
G(Z)                      :   15.502 sec (  3.0%)
Z-Vector Solution         :  297.539 sec ( 58.4%)
Z-Vector Solution         :  297.539 sec ( 58.4%)
3-Index Derivative 
+ Separable RIJ part      :    4.535 sec (  0.9%)
2-Index Derivative 
+ Separable RIJ part      :    0.035 sec (  0.0%)
Separable Gradient (COSX) :  119.746 sec ( 23.5%)


---------------------------------------
MP2 TOTAL ENERGY:    -1669.432151505 Eh
---------------------------------------

The final MP2 gradient
  0:  -0.00175486   0.00179126  -0.00011879
  1:  -0.00703346   0.00486386  -0.00021144
  2:   0.00261780  -0.00268707   0.00239462
  3:  -0.00243803   0.00318997   0.00294051
  4:   0.00274994   0.00243050  -0.00259391
  5:  -0.00077209  -0.00045087  -0.00040530
  6:   0.00440113  -0.01334454  -0.01219568
  7:   0.00206656   0.00012830   0.00149833
  8:   0.48422408   0.04493680  -0.02140905
  9:  -0.47699316  -0.03146280   0.02944872
 10:   0.00010349  -0.00558281   0.00187011
 11:  -0.00733187  -0.00410796  -0.00131710

-----------------------------------
NORM OF THE MP2 GRADIENT:  0.683327
-----------------------------------

Entering the calculation of the dispersion correction...

Checking the input atom types...

Done


-------------------------------------------------------------------------------
                          DFT DISPERSION CORRECTION                            
                                                                               
                                DFTD3 V2.1  Rev 6                               
                          USING Becke-Johnson damping                          
-------------------------------------------------------------------------------
The B2PLYP functional is recognized
Active option DFTDOPT                   ...         4   

molecular C6(AA) [au] = 4872.358602 


            DFT-D V3
 parameters
 s6 scaling factor         :     0.6400 
 a1 scaling factor         :     0.3065 
 s8 scaling factor         :     0.9147 
 a2 scaling factor         :     5.0570 
 ad hoc parameters k1-k3   :    16.0000     1.3333    -4.0000 

 Edisp/kcal,au: -8.985394120867  -0.014319135461 
 E6   /kcal   :  -4.104226458 
 E8   /kcal   :  -4.881167663 
 % E8         :  54.323356292 

-------------------------   ----------------
Dispersion correction           -0.014319135
-------------------------   ----------------


-------------------------   --------------------
FINAL SINGLE POINT ENERGY     -1669.446470640914
-------------------------   --------------------


                            ***************************************
                            *     ORCA property calculations      *
                            ***************************************


  WARNING: The energy has been calculated at the MP2 level but the densities
           used in the property calculations are still SCF densities
           MP2 response densities have not been calculated 
           use %mp2 Density relaxed end
           or  %mp2 Density unrelaxed end

                                    ---------------------
                                    Active property flags
                                    ---------------------
   (+) Dipole Moment


------------------------------------------------------------------------------
                       ORCA ELECTRIC PROPERTIES CALCULATION
------------------------------------------------------------------------------

Dipole Moment Calculation                       ... on
Quadrupole Moment Calculation                   ... off
Polarizability Calculation                      ... off
GBWName                                         ... PbMACl3_mp2_5.orca.gbw
Electron density file                           ... PbMACl3_mp2_5.orca.scfp.tmp

-------------
DIPOLE MOMENT
-------------
                                X             Y             Z
Electronic contribution:    -53.81865     -98.94712     -75.00742
Nuclear contribution   :     56.44861      99.85676      75.48845
                        -----------------------------------------
Total Dipole Moment    :      2.62996       0.90964       0.48103
                        -----------------------------------------
Magnitude (a.u.)       :      2.82410
Magnitude (Debye)      :      7.17830


                         *** MP2 UNRELAXED DENSITY ***

------------------------------------------------------------------------------
                       ORCA ELECTRIC PROPERTIES CALCULATION
------------------------------------------------------------------------------

Dipole Moment Calculation                       ... on
Quadrupole Moment Calculation                   ... off
Polarizability Calculation                      ... off
GBWName                                         ... PbMACl3_mp2_5.orca.gbw
Electron density file                           ... PbMACl3_mp2_5.orca.pmp2ur

-------------
DIPOLE MOMENT
-------------
                                X             Y             Z
Electronic contribution:    -53.83273     -98.94071     -74.99989
Nuclear contribution   :     56.44861      99.85676      75.48845
                        -----------------------------------------
Total Dipole Moment    :      2.61588       0.91605       0.48856
                        -----------------------------------------
Magnitude (a.u.)       :      2.81437
Magnitude (Debye)      :      7.15356


                           *** MP2 RELAXED DENSITY ***

------------------------------------------------------------------------------
                       ORCA ELECTRIC PROPERTIES CALCULATION
------------------------------------------------------------------------------

Dipole Moment Calculation                       ... on
Quadrupole Moment Calculation                   ... off
Polarizability Calculation                      ... off
GBWName                                         ... PbMACl3_mp2_5.orca.gbw
Electron density file                           ... PbMACl3_mp2_5.orca.pmp2re

-------------
DIPOLE MOMENT
-------------
                                X             Y             Z
Electronic contribution:    -53.91405     -98.96343     -75.00766
Nuclear contribution   :     56.44861      99.85676      75.48845
                        -----------------------------------------
Total Dipole Moment    :      2.53457       0.89333       0.48078
                        -----------------------------------------
Magnitude (a.u.)       :      2.73006
Magnitude (Debye)      :      6.93926


Timings for individual modules:

Sum of individual times         ...      734.780 sec (=  12.246 min)
GTO integral calculation        ...        0.649 sec (=   0.011 min)   0.1 %
SCF iterations                  ...      223.553 sec (=   3.726 min)  30.4 %
MP2 module                      ...      510.578 sec (=   8.510 min)  69.5 %
                             ****ORCA TERMINATED NORMALLY****
TOTAL RUN TIME: 0 days 0 hours 12 minutes 15 seconds 242 msec
