
                                 *****************
                                 * O   R   C   A *
                                 *****************

           --- An Ab Initio, DFT and Semiempirical electronic structure package ---

                  #######################################################
                  #                        -***-                        #
                  #  Department of molecular theory and spectroscopy    #
                  #              Directorship: Frank Neese              #
                  # Max Planck Institute for Chemical Energy Conversion #
                  #                  D-45470 Muelheim/Ruhr              #
                  #                       Germany                       #
                  #                                                     #
                  #                  All rights reserved                #
                  #                        -***-                        #
                  #######################################################


                         Program Version 3.0.3 - RELEASE   -


 With contributions from (in alphabetic order):
   Ute Becker             : Parallelization
   Dmytro Bykov           : SCF Hessian
   Dmitry Ganyushin       : Spin-Orbit,Spin-Spin,Magnetic field MRCI
   Andreas Hansen         : Spin unrestricted coupled pair/coupled cluster methods
   Dimitrios Liakos       : Extrapolation schemes; parallel MDCI
   Robert Izsak           : Overlap fitted RIJCOSX, COSX-SCS-MP3
   Christian Kollmar      : KDIIS, OOCD, Brueckner-CCSD(T), CCSD density
   Simone Kossmann        : Meta GGA functionals, TD-DFT gradient, OOMP2, MP2 Hessian
   Taras Petrenko         : DFT Hessian,TD-DFT gradient, ASA and ECA modules, normal mode analysis, Resonance Raman, ABS, FL, XAS/XES, NRVS
   Christoph Reimann      : Effective Core Potentials
   Michael Roemelt        : Restricted open shell CIS
   Christoph Riplinger    : Improved optimizer, TS searches, QM/MM, DLPNO-CCSD
   Barbara Sandhoefer     : DKH picture change effects
   Igor Schapiro          : Molecular dynamics
   Kantharuban Sivalingam : CASSCF convergence, NEVPT2
   Boris Wezisla          : Elementary symmetry handling
   Frank Wennmohs         : Technical directorship


 We gratefully acknowledge several colleagues who have allowed us to
 interface, adapt or use parts of their codes:
   Stefan Grimme, W. Hujo, H. Kruse, T. Risthaus : VdW corrections, initial TS optimization,
                                                   DFT functionals, gCP
   Ed Valeev                                     : LibInt (2-el integral package), F12 methods
   Garnet Chan, S. Sharma, R. Olivares           : DMRG
   Ulf Ekstrom                                   : XCFun DFT Library
   Mihaly Kallay                                 : mrcc  (arbitrary order and MRCC methods)
   Andreas Klamt, Michael Diedenhofen            : otool_cosmo (COSMO solvation model)
   Frank Weinhold                                : gennbo (NPA and NBO analysis)
   Christopher J. Cramer and Donald G. Truhlar   : smd solvation model


 Your calculation uses the libint2 library for the computation of 2-el integrals
 For citations please refer to: http://libint.valeyev.net

 This ORCA versions uses:
   CBLAS   interface :  Fast vector & matrix operations
   LAPACKE interface :  Fast linear algebra routines
   SCALAPACK package :  Parallel linear algebra routines


Your calculation utilizes the basis: Ahlrichs-TZV
Cite in your paper:
H - Kr: A. Schaefer, H. Horn and R. Ahlrichs, J. Chem. Phys. 97, 2571 (1992).

The def2-TZV basis will be loaded
Cite in your paper:
 	F. Weigend, R. Ahlrichs, Phys. Chem. Chem. Phys. 2005, 7, 3297.

Your calculation utilizes the atom-pairwise dispersion correction
with the Becke-Johnson damping scheme (D3BJ)
Cite in your paper:
S.Grimme, S.Ehrlich, L.Goerigk, J Comput Chem, (2011), 32, 1456–1465 
S.Grimme, J.Antony, S.Ehrlich and H.Krieg, J.Chem.Phys., 132, (2010), 154104 
   

================================================================================
                                        WARNINGS
                       Please study these warnings very carefully!
================================================================================

WARNING: The RI method has been chosen with no auxiliary basis (AUX or GTOAUX in BASIS block)
        Standard TZV/J expansion basis used (GTOAUX=TZV_J)

Now building the actual basis set
cite the ECPs for Pb [SD(60,MDF)] as follows:
  B. Metz, H. Stoll, M. Dolg, J. Chem. Phys. 113, 2563 (2000).

ECP parameters for Pb [SD(60,MDF)] have been obtained from:
  pseudopotential library of the Stuttgart/Cologne group
  http://www.theochem.uni-stuttgart.de/pseudopotentials/

cite the ECP basis sets for Pb [DEF2-TZVP] as follows:
  F. Weigend, R. Ahlrichs; Phys. Chem. Chem. Phys. 7, 3297(2005).

ECP basis sets for Pb [DEF2-TZVP] have been obtained from:
  Turbomole basis set library
  ftp://ftp.chemie.uni-karlsruhe.de/pub/basen/



INFO   : the flag for use of LIBINT has been found!

================================================================================
                                       INPUT FILE
================================================================================
NAME = PbMACl3_mp2_md_9.orca
|  1> ! RIJCOSX RI-B2PLYP D3BJ def2-TZVP ECP{def2-TZVP} TIGHTSCF Grid5 FinalGrid6 SlowConv MORead
|  2> %method
|  3>  RunTyp Gradient
|  4>  end
|  5> %maxcore 1000
|  6> %moinp "previous.gbw"
|  7> *xyz 0 1
|  8> C -0.719476 0.723500 -0.861158 
|  9> N -1.008380 1.472390 -2.093800 
| 10> H -1.046130 2.537930 -1.894080 
| 11> H -1.906610 1.206510 -2.564710 
| 12> H -0.280987 1.300100 -2.635670 
| 13> H -1.421670 0.965138 0.001940 
| 14> H 0.293728 0.949756 -0.507504 
| 15> H -0.840322 -0.353276 -1.150540 
| 16> Pb -3.085260 -2.671110 -2.369510 
| 17> Cl -0.872628 -3.929500 -2.396310 
| 18> Cl -2.832030 -0.258896 -2.175880 
| 19> Cl -4.783870 -3.599810 -0.881420 
| 20> *
| 21> 
| 22>                          ****END OF INPUT****
================================================================================

                     *******************************
                     * Energy+Gradient Calculation *
                     *******************************

---------------------------------
CARTESIAN COORDINATES (ANGSTROEM)
---------------------------------
  C     -0.719476    0.723500   -0.861158
  N     -1.008380    1.472390   -2.093800
  H     -1.046130    2.537930   -1.894080
  H     -1.906610    1.206510   -2.564710
  H     -0.280987    1.300100   -2.635670
  H     -1.421670    0.965138    0.001940
  H      0.293728    0.949756   -0.507504
  H     -0.840322   -0.353276   -1.150540
  Pb    -3.085260   -2.671110   -2.369510
  Cl    -0.872628   -3.929500   -2.396310
  Cl    -2.832030   -0.258896   -2.175880
  Cl    -4.783870   -3.599810   -0.881420

----------------------------
CARTESIAN COORDINATES (A.U.)
----------------------------
  NO LB      ZA    FRAG    MASS        X           Y           Z
   0 C     6.0000    0    12.011         -1.359612599929126          1.367216857892026         -1.627352778035357
   1 N     7.0000    0    14.007         -1.905562038923512          2.782413862324312         -3.956708579204316
   2 H     1.0000    0     1.008         -1.976899200479039          4.795992647062762         -3.579292475737564
   3 H     1.0000    0     1.008         -3.602970744195598          2.279973477837329         -4.846599512929173
   4 H     1.0000    0     1.008         -0.530988477192131          2.456832946711019         -4.980694479392226
   5 H     1.0000    0     1.008         -2.686566952811826          1.823846501440489          0.003666068699807
   6 H     1.0000    0     1.008          0.555065477864421          1.794778734048512         -0.959043571869571
   7 H     1.0000    0     1.008         -1.587978444308974         -0.667594889687164         -2.174205506121757
   8 Pb   22.0000*   0   207.200  -5.830296451941881  -5.047666373578394  -4.477724971587745
   9 Cl   17.0000    0    35.453         -1.649027936791434         -7.425678843243558         -4.528369631976835
  10 Cl   17.0000    0    35.453         -5.351761103049002         -0.489242537167676         -4.111817300276573
  11 Cl   17.0000    0    35.453         -9.040204160281858         -6.802655034151061         -1.665642408960870
* core charge reduced due to ECP

--------------------------------
INTERNAL COORDINATES (ANGSTROEM)
--------------------------------
 C      0   0   0   0.000000     0.000     0.000
 N      1   0   0   1.470955     0.000     0.000
 H      2   1   0   1.084753   110.649     0.000
 H      2   1   3   1.048459   114.553   238.200
 H      2   1   3   0.923259   104.009   116.432
 H      1   2   3   1.138597   113.957    53.163
 H      1   2   3   1.096743   110.281   293.650
 H      1   2   3   1.121513   104.562   172.622
 Pb     8   1   2   3.449346   143.753   299.825
 Cl     9   8   1   2.545585    76.714   171.422
 Cl     4   2   1   1.776234   123.865   345.956
 Cl     9   8   1   2.441756   119.535   282.881

---------------------------
INTERNAL COORDINATES (A.U.)
---------------------------
 C      0   0   0   0.000000     0.000     0.000
 N      1   0   0   2.779702     0.000     0.000
 H      2   1   0   2.049886   110.649     0.000
 H      2   1   3   1.981300   114.553   238.200
 H      2   1   3   1.744707   104.009   116.432
 H      1   2   3   2.151637   113.957    53.163
 H      1   2   3   2.072544   110.281   293.650
 H      1   2   3   2.119353   104.562   172.622
 Pb     8   1   2   6.518320   143.753   299.825
 Cl     9   8   1   4.810459    76.714   171.422
 Cl     4   2   1   3.356595   123.865   345.956
 Cl     9   8   1   4.614250   119.535   282.881

---------------------
BASIS SET INFORMATION
---------------------
There are 5 groups of distinct atoms

 Group   1 Type C   : 11s6p2d1f contracted to 5s3p2d1f pattern {62111/411/11/1}
 Group   2 Type N   : 11s6p2d1f contracted to 5s3p2d1f pattern {62111/411/11/1}
 Group   3 Type H   : 5s1p contracted to 3s1p pattern {311/1}
 Group   4 Type Pb  : 10s9p8d2f contracted to 6s5p3d2f pattern {421111/33111/611/11}
 Group   5 Type Cl  : 14s9p3d1f contracted to 5s5p2d1f pattern {73211/51111/21/1}

Atom   0C    basis set group =>   1
Atom   1N    basis set group =>   2
Atom   2H    basis set group =>   3
Atom   3H    basis set group =>   3
Atom   4H    basis set group =>   3
Atom   5H    basis set group =>   3
Atom   6H    basis set group =>   3
Atom   7H    basis set group =>   3
Atom   8Pb   basis set group =>   4
Atom   9Cl   basis set group =>   5
Atom  10Cl   basis set group =>   5
Atom  11Cl   basis set group =>   5
-------------------------------
AUXILIARY BASIS SET INFORMATION
-------------------------------
There are 5 groups of distinct atoms

 Group   1 Type C   : 12s5p4d2f1g contracted to 6s4p3d1f1g pattern {711111/2111/211/2/1}
 Group   2 Type N   : 12s5p4d2f1g contracted to 6s4p3d1f1g pattern {711111/2111/211/2/1}
 Group   3 Type H   : 5s2p1d contracted to 3s1p1d pattern {311/2/1}
 Group   4 Type Pb  : 31s12p8d6f3g contracted to 31s12p8d6f3g pattern {1111111111111111111111111111111/111111111111/11111111/111111/111}
 Group   5 Type Cl  : 14s5p5d2f1g contracted to 8s4p3d1f1g pattern {71111111/2111/311/2/1}

Atom   0C    basis set group =>   1
Atom   1N    basis set group =>   2
Atom   2H    basis set group =>   3
Atom   3H    basis set group =>   3
Atom   4H    basis set group =>   3
Atom   5H    basis set group =>   3
Atom   6H    basis set group =>   3
Atom   7H    basis set group =>   3
Atom   8Pb   basis set group =>   4
Atom   9Cl   basis set group =>   5
Atom  10Cl   basis set group =>   5
Atom  11Cl   basis set group =>   5

-------------------------
ECP PARAMETER INFORMATION
-------------------------

 Group 1, Type Pb ECP SD(60,MDF) (replacing 60 core electrons, lmax=5)

Atom   8Pb   ECP group =>   1


------------------------------------------------------------------------------
                           ORCA GTO INTEGRAL CALCULATION
                           -- RI-GTO INTEGRALS CHOSEN --
------------------------------------------------------------------------------

                         BASIS SET STATISTICS AND STARTUP INFO

Gaussian basis set:
 # of primitive gaussian shells          ...  186
 # of primitive gaussian functions       ...  420
 # of contracted shells                  ...  101
 # of contracted basis functions         ...  259
 Highest angular momentum                ...    3
 Maximum contraction depth               ...    7
Auxiliary gaussian basis set:
 # of primitive gaussian shells          ...  237
 # of primitive gaussian functions       ...  643
 # of contracted shells                  ...  171
 # of contracted aux-basis functions     ...  493
 Highest angular momentum                ...    4
 Maximum contraction depth               ...    7
Ratio of auxiliary to basis functions    ...  1.90
Integral package used                  ... LIBINT
 One Electron integrals                  
   ECP integrals                         ... done
 Ordering auxiliary basis shells         ... done
 Integral threshhold             Thresh  ...  2.500e-11
 Primitive cut-off               TCut    ...  2.500e-12
 Pre-screening matrix                    ... done
 Shell pair data                         ... 
 Ordering of the shell pairs             ... done (   0.001 sec) 4111 of 5151 pairs
 Determination of significant pairs      ... done (   0.000 sec)
 Creation of shell pair data             ... done (   0.001 sec)
 Storage of shell pair data              ... done (   0.001 sec)
 Shell pair data done in (   0.002 sec)
 Computing two index integrals           ... done
 Cholesky decomposition of the V-matrix  ... done


Timings:
 Total evaluation time                   ...   0.693 sec (  0.012 min)
 One electron matrix time                ...   0.333 sec (  0.006 min) = 48.0%
 Schwartz matrix evaluation time         ...   0.219 sec (  0.004 min) = 31.6%
 Two index repulsion integral time       ...   0.007 sec (  0.000 min) =  1.1%
 Cholesky decomposition of V             ...   0.105 sec (  0.002 min) = 15.2%
 Three index repulsion integral time     ...   0.000 sec (  0.000 min) =  0.0%

-------------------------------------------------------------------------------
                                 ORCA SCF
-------------------------------------------------------------------------------

------------
SCF SETTINGS
------------
Hamiltonian:
 Density Functional     Method          .... DFT(GTOs)
 Exchange Functional    Exchange        .... B88
   X-Alpha parameter    XAlpha          ....  0.666667
   Becke's b parameter  XBeta           ....  0.004200
 Correlation Functional Correlation     .... LYP
 LDA part of GGA corr.  LDAOpt          .... VWN-3
 Gradients option       PostSCFGGA      .... off
 Hybrid DFT is turned on
   Fraction HF Exchange ScalHFX         ....  0.530000
   Scaling of DF-GGA-X  ScalDFX         ....  0.470000
   Scaling of DF-GGA-C  ScalDFC         ....  0.730000
   Scaling of DF-LDA-C  ScalLDAC        ....  0.730000
   Perturbative correction              ....  0.270000
 RI-approximation to the Coulomb term is turned on
   Number of auxiliary basis functions  .... 493
   RIJ-COSX (HFX calculated with COS-X)).... on


General Settings:
 Integral files         IntName         .... PbMACl3_mp2_md_9.orca
 Hartree-Fock type      HFTyp           .... RHF
 Total Charge           Charge          ....    0
 Multiplicity           Mult            ....    1
 Number of Electrons    NEL             ....   92
 Basis Dimension        Dim             ....  259
 Nuclear Repulsion      ENuc            ....    573.9004342819 Eh

Convergence Acceleration:
 DIIS                   CNVDIIS         .... on
   Start iteration      DIISMaxIt       ....     0
   Startup error        DIISStart       ....  0.200000
   # of expansion vecs  DIISMaxEq       ....     5
   Bias factor          DIISBfac        ....   1.050
   Max. coefficient     DIISMaxC        ....  10.000
 Newton-Raphson         CNVNR           .... off
 SOSCF                  CNVSOSCF        .... on
   Start iteration      SOSCFMaxIt      ....   150
   Startup grad/error   SOSCFStart      ....  0.001000
 Level Shifting         CNVShift        .... on
   Level shift para.    LevelShift      ....    0.2500
   Turn off err/grad.   ShiftErr        ....    0.0000
 Zerner damping         CNVZerner       .... off
 Static damping         CNVDamp         .... on
   Fraction old density DampFac         ....    0.8500
   Max. Damping (<1)    DampMax         ....    0.9800
   Min. Damping (>=0)   DampMin         ....    0.0000
   Turn off err/grad.   DampErr         ....    0.0300
 Fernandez-Rico         CNVRico         .... off

SCF Procedure:
 Maximum # iterations   MaxIter         ....   125
 SCF integral mode      SCFMode         .... Direct
   Integral package                     .... LIBINT
 Reset frequeny         DirectResetFreq ....    20
 Integral Threshold     Thresh          ....  2.500e-11 Eh
 Primitive CutOff       TCut            ....  2.500e-12 Eh

Convergence Tolerance:
 Convergence Check Mode ConvCheckMode   .... Total+1el-Energy
 Energy Change          TolE            ....  1.000e-08 Eh
 1-El. energy change                    ....  1.000e-05 Eh
 Orbital Gradient       TolG            ....  1.000e-05
 Orbital Rotation angle TolX            ....  1.000e-05
 DIIS Error             TolErr          ....  5.000e-07


Diagonalization of the overlap matrix:
Smallest eigenvalue                        ... 8.693e-04
Time for diagonalization                   ...    0.329 sec
Threshold for overlap eigenvalues          ... 1.000e-08
Number of eigenvalues below threshold      ... 0
Time for construction of square roots      ...    0.007 sec
Total time needed                          ...    0.337 sec

---------------------
INITIAL GUESS: MOREAD
---------------------
Guess MOs are being read from file: previous.gbw
Input geometry compatible with but different from current geometry
Input basis set matches current basis set (good)
MOs were renormalized
MOs were reorthogonalized (Schmidt)
                      ------------------
                      INITIAL GUESS DONE (   0.1 sec)
                      ------------------
-------------------
DFT GRID GENERATION
-------------------

General Integration Accuracy     IntAcc      ...  5.010
Radial Grid Type                 RadialGrid  ... Gauss-Chebyshev
Angular Grid (max. acc.)         AngularGrid ... Lebedev-434
Angular grid pruning method      GridPruning ... 3 (G Style)
Weight generation scheme         WeightScheme... Becke
Basis function cutoff            BFCut       ...    1.0000e-11
Integration weight cutoff        WCut        ...    1.0000e-14
Grids for H and He will be reduced by one unit

# of grid points (after initial pruning)     ... 115882 (   0.0 sec)
# of grid points (after weights+screening)   ... 109340 (   0.3 sec)
nearest neighbour list constructed           ...    0.0 sec
Grid point re-assignment to atoms done       ...    0.0 sec
Grid point division into batches done        ...    1.0 sec
Reduced shell lists constructed in    2.4 sec

Total number of grid points                  ...   109340
Total number of batches                      ...     1715
Average number of points per batch           ...       63
Average number of grid points per atom       ...     9112
Average number of shells per batch           ...    50.58 (50.08%)
Average number of basis functions per batch  ...   132.20 (51.04%)
Average number of large shells per batch     ...    38.06 (75.25%)
Average number of large basis fcns per batch ...    98.43 (74.46%)
Maximum spatial batch extension              ...  32.24, 30.37, 35.06 au
Average spatial batch extension              ...   2.46,  2.40,  2.59 au

Time for grid setup =    2.698 sec

--------------------
COSX GRID GENERATION
--------------------

General Integration Accuracy     IntAcc      ...  3.340
Radial Grid Type                 RadialGrid  ... Gauss-Chebyshev
Angular Grid (max. acc.)         AngularGrid ... Lebedev-50
Angular grid pruning method      GridPruning ... 3 (G Style)
Weight generation scheme         WeightScheme... Becke
Basis function cutoff            BFCut       ...    1.0000e-11
Integration weight cutoff        WCut        ...    1.0000e-14
Grids for H and He will be reduced by one unit

# of grid points (after initial pruning)     ...   6578 (   0.0 sec)
# of grid points (after weights+screening)   ...   6301 (   0.0 sec)
nearest neighbour list constructed           ...    0.0 sec
Grid point re-assignment to atoms done       ...    0.0 sec
Grid point division into batches done        ...    0.0 sec
Reduced shell lists constructed in    0.1 sec

Total number of grid points                  ...     6301
Total number of batches                      ...      104
Average number of points per batch           ...       60
Average number of grid points per atom       ...      525
Average number of shells per batch           ...    60.74 (60.14%)
Average number of basis functions per batch  ...   161.03 (62.17%)
Average number of large shells per batch     ...    47.20 (77.70%)
Average number of large basis fcns per batch ...   124.29 (77.18%)
Maximum spatial batch extension              ...  26.08, 30.90, 36.32 au
Average spatial batch extension              ...   6.27,  6.02,  6.91 au

Overlap Fitting                  UseSFitting ... on
Constructing numerical overlap ... done (      0.1 sec)
Inverting numerical overlap    ... done (      0.0 sec)
Obtaining analytic overlap     ... done (      0.0 sec)
Final contraction and storage  ... done (      0.0 sec)


General Integration Accuracy     IntAcc      ...  3.670
Radial Grid Type                 RadialGrid  ... Gauss-Chebyshev
Angular Grid (max. acc.)         AngularGrid ... Lebedev-50
Angular grid pruning method      GridPruning ... 3 (G Style)
Weight generation scheme         WeightScheme... Becke
Basis function cutoff            BFCut       ...    1.0000e-11
Integration weight cutoff        WCut        ...    1.0000e-14
Grids for H and He will be reduced by one unit

# of grid points (after initial pruning)     ...   8124 (   0.0 sec)
# of grid points (after weights+screening)   ...   7763 (   0.0 sec)
nearest neighbour list constructed           ...    0.0 sec
Grid point re-assignment to atoms done       ...    0.0 sec
Grid point division into batches done        ...    0.0 sec
Reduced shell lists constructed in    0.1 sec

Total number of grid points                  ...     7763
Total number of batches                      ...      129
Average number of points per batch           ...       60
Average number of grid points per atom       ...      647
Average number of shells per batch           ...    60.26 (59.66%)
Average number of basis functions per batch  ...   158.80 (61.31%)
Average number of large shells per batch     ...    46.79 (77.65%)
Average number of large basis fcns per batch ...   122.39 (77.07%)
Maximum spatial batch extension              ...  26.94, 28.34, 37.91 au
Average spatial batch extension              ...   5.88,  5.73,  6.59 au

Overlap Fitting                  UseSFitting ... on
Constructing numerical overlap ... done (      0.1 sec)
Inverting numerical overlap    ... done (      0.0 sec)
Obtaining analytic overlap     ... done (      0.0 sec)
Final contraction and storage  ... done (      0.0 sec)


General Integration Accuracy     IntAcc      ...  4.010
Radial Grid Type                 RadialGrid  ... Gauss-Chebyshev
Angular Grid (max. acc.)         AngularGrid ... Lebedev-110
Angular grid pruning method      GridPruning ... 3 (G Style)
Weight generation scheme         WeightScheme... Becke
Basis function cutoff            BFCut       ...    1.0000e-11
Integration weight cutoff        WCut        ...    1.0000e-14
Grids for H and He will be reduced by one unit

# of grid points (after initial pruning)     ...  15170 (   0.0 sec)
# of grid points (after weights+screening)   ...  14524 (   0.0 sec)
nearest neighbour list constructed           ...    0.0 sec
Grid point re-assignment to atoms done       ...    0.0 sec
Grid point division into batches done        ...    0.0 sec
Reduced shell lists constructed in    0.2 sec

Total number of grid points                  ...    14524
Total number of batches                      ...      233
Average number of points per batch           ...       62
Average number of grid points per atom       ...     1210
Average number of shells per batch           ...    57.19 (56.62%)
Average number of basis functions per batch  ...   151.07 (58.33%)
Average number of large shells per batch     ...    43.79 (76.57%)
Average number of large basis fcns per batch ...   114.95 (76.09%)
Maximum spatial batch extension              ...  29.00, 29.00, 31.63 au
Average spatial batch extension              ...   4.81,  4.61,  5.32 au

Overlap Fitting                  UseSFitting ... on
Constructing numerical overlap ... done (      0.1 sec)
Inverting numerical overlap    ... done (      0.0 sec)
Obtaining analytic overlap     ... done (      0.0 sec)
Final contraction and storage  ... done (      0.0 sec)

Time for X-Grid setup             =    0.936 sec
--------------
SCF ITERATIONS
--------------
ITER       Energy         Delta-E        Max-DP      RMS-DP      [F,P]     Damp
               ***  Starting incremental Fock matrix formation  ***
  0  -1663.6928429604   0.000000000000 0.12009517  0.00223761  0.6545984 0.8500
  1  -1664.4344752376  -0.741632277200 0.10554484  0.00198749  0.5569593 0.8500
                               ***Turning on DIIS***
  2  -1665.0592811539  -0.624805916292 0.08606626  0.00170098  0.4736236 0.8500
  3  -1665.5903166389  -0.531035485009 0.06863025  0.00144419  0.4027282 0.8500
  4  -1666.0500476282  -0.459730989287 0.05627183  0.00124535  0.3423965 0.8500
  5  -1666.4466937771  -0.396646148853 0.04707691  0.00108059  0.2910686 0.8500
  6  -1666.7914850618  -0.344791284770 0.04019942  0.00093369  0.2474199 0.8500
  7  -1667.0921011048  -0.300616042991 0.03465523  0.00080271  0.2103123 0.8500
  8  -1667.3537971988  -0.261696093919 0.02996329  0.00068695  0.1787701 0.8500
  9  -1667.5799954694  -0.226198270683 0.02559747  0.00058621  0.1519587 0.8500
 10  -1667.7747545936  -0.194759124155 0.02168625  0.00049988  0.1291686 0.8500
 11  -1667.9421718356  -0.167417242056 0.01837193  0.00042628  0.1097967 0.8500
 12  -1668.0859220136  -0.143750177932 0.01561235  0.00036350  0.0933299 0.8500
 13  -1668.2091922682  -0.123270254624 0.01329544  0.00030982  0.0793324 0.8500
 14  -1668.3147478904  -0.105555622199 0.01131634  0.00026392  0.0674339 0.8500
 15  -1668.4050219578  -0.090274067374 0.00961825  0.00022477  0.0573199 0.8500
 16  -1668.4821536636  -0.077131705813 0.00817084  0.00019142  0.0487228 0.8500
 17  -1668.5480072639  -0.065853600325 0.00694430  0.00016303  0.0414152 0.8500
 18  -1668.6041961200  -0.056188856127 0.00590539  0.00013885  0.0352035 0.8500
 19  -1668.6521116410  -0.047915520973 0.03348532  0.00078830  0.0299234 0.0000
               *** Restarting incremental Fock matrix formation ***
                                   *** Resetting DIIS ***
                      *** Initiating the SOSCF procedure ***
                           *** Shutting down DIIS ***
                      *** Re-Reading the Fockian *** 
                      *** Removing any level shift *** 
ITER      Energy       Delta-E        Grad      Rot      Max-DP    RMS-DP
 20  -1668.92878073  -0.2766690895  0.000380  0.000380  0.001260  0.000024
               *** Restarting incremental Fock matrix formation ***
 21  -1668.92641886   0.0023618731  0.000335  0.000416  0.001247  0.000022
 22  -1668.92641741   0.0000014439  0.000083  0.000153  0.000314  0.000006
 23  -1668.92641676   0.0000006582  0.000072  0.000033  0.000206  0.000004
 24  -1668.92641736  -0.0000006095  0.000009  0.000028  0.000022  0.000001
 25  -1668.92641743  -0.0000000623  0.000003  0.000014  0.000023  0.000000
                  ***Gradient check signals convergence***
              ***Rediagonalizing the Fockian in SOSCF/NRSCF***

               *****************************************************
               *                     SUCCESS                       *
               *           SCF CONVERGED AFTER  26 CYCLES          *
               *****************************************************

Old exchange energy                            =    -59.245650517 Eh
New exchange energy                            =    -59.247514605 Eh
Exchange energy change after final integration =     -0.001864088 Eh
Total energy after final integration           =  -1668.928281519 Eh
Final COS-X integration done in                =    23.336 sec

----------------
TOTAL SCF ENERGY
----------------

Total Energy       :        -1668.92828152 Eh          -45413.84734 eV

Components:
Nuclear Repulsion  :          573.90043428 Eh           15616.62475 eV
Electronic Energy  :        -2242.82871580 Eh          -61030.47209 eV

One Electron Energy:        -3519.57241996 Eh          -95772.43452 eV
Two Electron Energy:         1276.74370416 Eh           34741.96244 eV

Virial components:
Potential Energy   :        -3207.16795458 Eh          -87271.47684 eV
Kinetic Energy     :         1538.23967306 Eh           41857.62950 eV
Virial Ratio       :            2.08495985


DFT components:
N(Alpha)           :       45.999990566413 electrons
N(Beta)            :       45.999990566413 electrons
N(Total)           :       91.999981132827 electrons
E(X)               :      -52.616156620469 Eh       
E(C)               :       -2.611894383880 Eh       
E(XC)              :      -55.228051004349 Eh       

---------------
SCF CONVERGENCE
---------------

  Last Energy change         ...   -3.8845e-09  Tolerance :   1.0000e-08
  Last MAX-Density change    ...    2.1358e-14  Tolerance :   1.0000e-07
  Last RMS-Density change    ...    2.0851e-16  Tolerance :   5.0000e-09
  Last Orbital Gradient      ...    1.5702e-06  Tolerance :   1.0000e-05
  Last Orbital Rotation      ...    3.4657e-06  Tolerance :   1.0000e-05

             **** THE GBW FILE WAS UPDATED (PbMACl3_mp2_md_9.orca.gbw) ****
             **** DENSITY FILE WAS UPDATED (PbMACl3_mp2_md_9.orca.scfp.tmp) ****
             **** ENERGY FILE WAS UPDATED (PbMACl3_mp2_md_9.orca.en.tmp) ****
----------------
ORBITAL ENERGIES
----------------

  NO   OCC          E(Eh)            E(eV) 
   0   2.0000    -102.865314     -2799.1075 
   1   2.0000    -102.816363     -2797.7755 
   2   2.0000    -102.808865     -2797.5714 
   3   2.0000     -15.006935      -408.3595 
   4   2.0000     -10.725487      -291.8553 
   5   2.0000      -9.878738      -268.8141 
   6   2.0000      -9.824247      -267.3314 
   7   2.0000      -9.816002      -267.1070 
   8   2.0000      -7.515330      -204.5025 
   9   2.0000      -7.513591      -204.4552 
  10   2.0000      -7.513448      -204.4513 
  11   2.0000      -7.461295      -203.0321 
  12   2.0000      -7.459421      -202.9812 
  13   2.0000      -7.459255      -202.9767 
  14   2.0000      -7.452965      -202.8055 
  15   2.0000      -7.451340      -202.7613 
  16   2.0000      -7.451177      -202.7568 
  17   2.0000      -5.763428      -156.8308 
  18   2.0000      -3.536485       -96.2326 
  19   2.0000      -3.534087       -96.1674 
  20   2.0000      -3.532224       -96.1167 
  21   2.0000      -1.204105       -32.7654 
  22   2.0000      -0.958767       -26.0894 
  23   2.0000      -0.937107       -25.5000 
  24   2.0000      -0.931254       -25.3407 
  25   2.0000      -0.924598       -25.1596 
  26   2.0000      -0.923919       -25.1411 
  27   2.0000      -0.901217       -24.5234 
  28   2.0000      -0.873961       -23.7817 
  29   2.0000      -0.835551       -22.7365 
  30   2.0000      -0.821497       -22.3541 
  31   2.0000      -0.747339       -20.3361 
  32   2.0000      -0.712826       -19.3970 
  33   2.0000      -0.622443       -16.9375 
  34   2.0000      -0.545732       -14.8501 
  35   2.0000      -0.531898       -14.4737 
  36   2.0000      -0.524092       -14.2613 
  37   2.0000      -0.396261       -10.7828 
  38   2.0000      -0.387464       -10.5434 
  39   2.0000      -0.376722       -10.2511 
  40   2.0000      -0.345340        -9.3972 
  41   2.0000      -0.320180        -8.7125 
  42   2.0000      -0.314366        -8.5543 
  43   2.0000      -0.306802        -8.3485 
  44   2.0000      -0.304019        -8.2728 
  45   2.0000      -0.234324        -6.3763 
  46   0.0000      -0.018917        -0.5148 
  47   0.0000      -0.001239        -0.0337 
  48   0.0000       0.043042         1.1712 
  49   0.0000       0.054880         1.4934 
  50   0.0000       0.070836         1.9275 
  51   0.0000       0.073247         1.9931 
  52   0.0000       0.097657         2.6574 
  53   0.0000       0.116995         3.1836 
  54   0.0000       0.124877         3.3981 
  55   0.0000       0.135448         3.6857 
  56   0.0000       0.154754         4.2111 
  57   0.0000       0.157739         4.2923 
  58   0.0000       0.171211         4.6589 
  59   0.0000       0.199489         5.4284 
  60   0.0000       0.217508         5.9187 
  61   0.0000       0.240251         6.5376 
  62   0.0000       0.245766         6.6876 
  63   0.0000       0.256434         6.9779 
  64   0.0000       0.289767         7.8850 
  65   0.0000       0.291289         7.9264 
  66   0.0000       0.307662         8.3719 
  67   0.0000       0.315547         8.5865 
  68   0.0000       0.337012         9.1706 
  69   0.0000       0.368668        10.0320 
  70   0.0000       0.386297        10.5117 
  71   0.0000       0.405437        11.0325 
  72   0.0000       0.418130        11.3779 
  73   0.0000       0.432030        11.7561 
  74   0.0000       0.437956        11.9174 
  75   0.0000       0.447598        12.1798 
  76   0.0000       0.453514        12.3407 
  77   0.0000       0.461435        12.5563 
  78   0.0000       0.471717        12.8361 
  79   0.0000       0.484100        13.1730 
  80   0.0000       0.484799        13.1920 
  81   0.0000       0.490510        13.3475 
  82   0.0000       0.493816        13.4374 
  83   0.0000       0.502303        13.6684 
  84   0.0000       0.518484        14.1087 
  85   0.0000       0.526651        14.3309 
  86   0.0000       0.538655        14.6575 
  87   0.0000       0.556229        15.1358 
  88   0.0000       0.563175        15.3248 
  89   0.0000       0.582904        15.8616 
  90   0.0000       0.585274        15.9261 
  91   0.0000       0.595273        16.1982 
  92   0.0000       0.600901        16.3513 
  93   0.0000       0.612823        16.6758 
  94   0.0000       0.622194        16.9308 
  95   0.0000       0.638583        17.3767 
  96   0.0000       0.643225        17.5030 
  97   0.0000       0.656468        17.8634 
  98   0.0000       0.677500        18.4357 
  99   0.0000       0.679674        18.4949 
 100   0.0000       0.723006        19.6740 
 101   0.0000       0.736513        20.0415 
 102   0.0000       0.757631        20.6162 
 103   0.0000       0.773724        21.0541 
 104   0.0000       0.801618        21.8131 
 105   0.0000       0.836897        22.7731 
 106   0.0000       0.867377        23.6025 
 107   0.0000       0.881766        23.9941 
 108   0.0000       0.892874        24.2963 
 109   0.0000       0.919275        25.0147 
 110   0.0000       0.922044        25.0901 
 111   0.0000       0.933452        25.4005 
 112   0.0000       0.944054        25.6890 
 113   0.0000       0.959971        26.1221 
 114   0.0000       0.965203        26.2645 
 115   0.0000       0.988769        26.9058 
 116   0.0000       1.012371        27.5480 
 117   0.0000       1.036399        28.2019 
 118   0.0000       1.086163        29.5560 
 119   0.0000       1.108520        30.1644 
 120   0.0000       1.124459        30.5981 
 121   0.0000       1.136453        30.9245 
 122   0.0000       1.162281        31.6273 
 123   0.0000       1.174579        31.9619 
 124   0.0000       1.204435        32.7743 
 125   0.0000       1.221211        33.2308 
 126   0.0000       1.285869        34.9903 
 127   0.0000       1.337263        36.3888 
 128   0.0000       1.350561        36.7506 
 129   0.0000       1.365422        37.1550 
 130   0.0000       1.396430        37.9988 
 131   0.0000       1.520144        41.3652 
 132   0.0000       1.533136        41.7187 
 133   0.0000       1.556969        42.3673 
 134   0.0000       1.590446        43.2782 
 135   0.0000       1.609522        43.7973 
 136   0.0000       1.681427        45.7539 
 137   0.0000       1.732973        47.1566 
 138   0.0000       1.769796        48.1586 
 139   0.0000       1.817567        49.4585 
 140   0.0000       1.852829        50.4180 
 141   0.0000       1.903524        51.7975 
 142   0.0000       1.944719        52.9185 
 143   0.0000       1.950857        53.0855 
 144   0.0000       1.952321        53.1254 
 145   0.0000       1.965525        53.4846 
 146   0.0000       1.971275        53.6411 
 147   0.0000       1.979855        53.8746 
 148   0.0000       1.994111        54.2625 
 149   0.0000       2.012869        54.7729 
 150   0.0000       2.021524        55.0085 
 151   0.0000       2.032051        55.2949 
 152   0.0000       2.036814        55.4245 
 153   0.0000       2.053247        55.8717 
 154   0.0000       2.068987        56.3000 
 155   0.0000       2.073947        56.4350 
 156   0.0000       2.082900        56.6786 
 157   0.0000       2.117156        57.6108 
 158   0.0000       2.120891        57.7124 
 159   0.0000       2.135896        58.1207 
 160   0.0000       2.143862        58.3375 
 161   0.0000       2.163896        58.8826 
 162   0.0000       2.175523        59.1990 
 163   0.0000       2.181112        59.3511 
 164   0.0000       2.203167        59.9512 
 165   0.0000       2.212034        60.1925 
 166   0.0000       2.229333        60.6632 
 167   0.0000       2.247394        61.1547 
 168   0.0000       2.249357        61.2081 
 169   0.0000       2.267483        61.7013 
 170   0.0000       2.279553        62.0298 
 171   0.0000       2.288359        62.2694 
 172   0.0000       2.289773        62.3079 
 173   0.0000       2.291474        62.3542 
 174   0.0000       2.298236        62.5382 
 175   0.0000       2.300244        62.5928 
 176   0.0000       2.308463        62.8165 
 177   0.0000       2.316635        63.0388 
 178   0.0000       2.331098        63.4324 
 179   0.0000       2.351185        63.9790 
 180   0.0000       2.362331        64.2823 
 181   0.0000       2.374357        64.6095 
 182   0.0000       2.388689        64.9995 
 183   0.0000       2.399772        65.3011 
 184   0.0000       2.421896        65.9031 
 185   0.0000       2.425837        66.0104 
 186   0.0000       2.436535        66.3015 
 187   0.0000       2.446035        66.5600 
 188   0.0000       2.448045        66.6147 
 189   0.0000       2.455347        66.8134 
 190   0.0000       2.461238        66.9737 
 191   0.0000       2.465732        67.0960 
 192   0.0000       2.489753        67.7496 
 193   0.0000       2.505773        68.1856 
 194   0.0000       2.511664        68.3459 
 195   0.0000       2.525741        68.7289 
 196   0.0000       2.535443        68.9929 
 197   0.0000       2.564940        69.7956 
 198   0.0000       2.584324        70.3230 
 199   0.0000       2.604230        70.8647 
 200   0.0000       2.609902        71.0191 
 201   0.0000       2.644432        71.9587 
 202   0.0000       2.695516        73.3487 
 203   0.0000       2.702527        73.5395 
 204   0.0000       2.731575        74.3299 
 205   0.0000       2.758805        75.0709 
 206   0.0000       2.789290        75.9004 
 207   0.0000       2.818056        76.6832 
 208   0.0000       2.856752        77.7362 
 209   0.0000       2.877447        78.2993 
 210   0.0000       2.973192        80.9047 
 211   0.0000       3.025124        82.3178 
 212   0.0000       3.096311        84.2549 
 213   0.0000       3.127904        85.1146 
 214   0.0000       3.179727        86.5248 
 215   0.0000       3.233568        87.9899 
 216   0.0000       3.323653        90.4412 
 217   0.0000       3.382486        92.0421 
 218   0.0000       3.540327        96.3372 
 219   0.0000       3.555953        96.7624 
 220   0.0000       3.585170        97.5574 
 221   0.0000       3.682098       100.1950 
 222   0.0000       3.784171       102.9725 
 223   0.0000       3.865895       105.1963 
 224   0.0000       3.998478       108.8041 
 225   0.0000       4.110233       111.8451 
 226   0.0000       4.171479       113.5117 
 227   0.0000       4.389174       119.4355 
 228   0.0000       4.485958       122.0691 
 229   0.0000       4.789140       130.3191 
 230   0.0000       4.826574       131.3377 
 231   0.0000       4.888246       133.0159 
 232   0.0000       4.937171       134.3472 
 233   0.0000       5.003374       136.1487 
 234   0.0000       5.091438       138.5451 
 235   0.0000       5.179541       140.9425 
 236   0.0000       5.268223       143.3556 
 237   0.0000       5.439454       148.0151 
 238   0.0000       5.520017       150.2073 
 239   0.0000       5.987559       162.9298 
 240   0.0000      11.081973       301.5558 
 241   0.0000      11.089883       301.7711 
 242   0.0000      11.091833       301.8241 
 243   0.0000      11.104458       302.1677 
 244   0.0000      11.108769       302.2850 
 245   0.0000      11.129963       302.8617 
 246   0.0000      11.220190       305.3169 
 247   0.0000      11.248582       306.0895 
 248   0.0000      11.349856       308.8453 
 249   0.0000      22.573929       614.2678 
 250   0.0000      25.165156       684.7787 
 251   0.0000      25.256670       687.2689 
 252   0.0000      25.573565       695.8921 
 253   0.0000      32.306401       879.1019 
 254   0.0000      35.615585       969.1493 
 255   0.0000      35.785637       973.7767 
 256   0.0000      35.873010       976.1542 
 257   0.0000      35.911576       977.2037 
 258   0.0000     123.659183      3364.9374 

                    ********************************
                    * MULLIKEN POPULATION ANALYSIS *
                    ********************************

-----------------------
MULLIKEN ATOMIC CHARGES
-----------------------
   0 C :   -0.272530
   1 N :   -0.265592
   2 H :    0.294573
   3 H :    0.307324
   4 H :    0.258483
   5 H :    0.175505
   6 H :    0.148973
   7 H :    0.193187
   8 Pb:    0.855777
   9 Cl:   -0.577348
  10 Cl:   -0.588679
  11 Cl:   -0.529673
Sum of atomic charges:    0.0000000

--------------------------------
MULLIKEN REDUCED ORBITAL CHARGES
--------------------------------
  0 C s       :     3.282675  s :     3.282675
      pz      :     0.822027  p :     2.911001
      px      :     1.076779
      py      :     1.012195
      dz2     :     0.015125  d :     0.072270
      dxz     :     0.017435
      dyz     :     0.014229
      dx2y2   :     0.017064
      dxy     :     0.008417
      f0      :     0.001052  f :     0.006584
      f+1     :     0.001066
      f-1     :     0.001391
      f+2     :     0.001386
      f-2     :     0.000837
      f+3     :     0.000260
      f-3     :     0.000593
  1 N s       :     3.419514  s :     3.419514
      pz      :     1.251890  p :     3.791380
      px      :     1.297690
      py      :     1.241801
      dz2     :     0.011891  d :     0.052206
      dxz     :     0.014942
      dyz     :     0.006386
      dx2y2   :     0.013842
      dxy     :     0.005144
      f0      :     0.000479  f :     0.002492
      f+1     :     0.000173
      f-1     :     0.000371
      f+2     :     0.000779
      f-2     :     0.000203
      f+3     :     0.000132
      f-3     :     0.000355
  2 H s       :     0.676288  s :     0.676288
      pz      :     0.005271  p :     0.029138
      px      :     0.005219
      py      :     0.018648
  3 H s       :     0.639778  s :     0.639778
      pz      :     0.009833  p :     0.052898
      px      :     0.027584
      py      :     0.015481
  4 H s       :     0.700722  s :     0.700722
      pz      :     0.013382  p :     0.040795
      px      :     0.018527
      py      :     0.008885
  5 H s       :     0.804039  s :     0.804039
      pz      :     0.009692  p :     0.020455
      px      :     0.007456
      py      :     0.003307
  6 H s       :     0.829491  s :     0.829491
      pz      :     0.004870  p :     0.021536
      px      :     0.012760
      py      :     0.003906
  7 H s       :     0.781947  s :     0.781947
      pz      :     0.004181  p :     0.024867
      px      :     0.005435
      py      :     0.015251
  8 Pbs       :     3.932559  s :     3.932559
      pz      :     2.377235  p :     6.978617
      px      :     2.332982
      py      :     2.268400
      dz2     :     2.032304  d :    10.160104
      dxz     :     2.035629
      dyz     :     2.020957
      dx2y2   :     2.039158
      dxy     :     2.032055
      f0      :     0.006240  f :     0.072943
      f+1     :     0.008661
      f-1     :     0.006425
      f+2     :     0.009455
      f-2     :     0.008926
      f+3     :     0.013463
      f-3     :     0.019773
  9 Cls       :     5.953074  s :     5.953074
      pz      :     3.924245  p :    11.607281
      px      :     3.811718
      py      :     3.871318
      dz2     :     0.002675  d :     0.016233
      dxz     :     0.001968
      dyz     :     0.000981
      dx2y2   :     0.004055
      dxy     :     0.006554
      f0      :     0.000061  f :     0.000761
      f+1     :     0.000132
      f-1     :     0.000050
      f+2     :     0.000024
      f-2     :     0.000077
      f+3     :     0.000133
      f-3     :     0.000283
 10 Cls       :     5.954035  s :     5.954035
      pz      :     3.923245  p :    11.599599
      px      :     3.923944
      py      :     3.752410
      dz2     :     0.005136  d :     0.032875
      dxz     :     0.003230
      dyz     :     0.003601
      dx2y2   :     0.012839
      dxy     :     0.008069
      f0      :     0.000218  f :     0.002170
      f+1     :     0.000112
      f-1     :     0.000344
      f+2     :     0.000261
      f-2     :     0.000132
      f+3     :     0.000586
      f-3     :     0.000517
 11 Cls       :     5.947498  s :     5.947498
      pz      :     3.879906  p :    11.560584
      px      :     3.794825
      py      :     3.885854
      dz2     :     0.002816  d :     0.020484
      dxz     :     0.007361
      dyz     :     0.003123
      dx2y2   :     0.003027
      dxy     :     0.004156
      f0      :     0.000116  f :     0.001107
      f+1     :     0.000205
      f-1     :     0.000068
      f+2     :     0.000194
      f-2     :     0.000278
      f+3     :     0.000099
      f-3     :     0.000146


                     *******************************
                     * LOEWDIN POPULATION ANALYSIS *
                     *******************************

----------------------
LOEWDIN ATOMIC CHARGES
----------------------
   0 C :   -0.340846
   1 N :    0.107583
   2 H :    0.223038
   3 H :    0.129327
   4 H :    0.150060
   5 H :    0.137686
   6 H :    0.117333
   7 H :    0.138287
   8 Pb:   -0.143403
   9 Cl:   -0.275842
  10 Cl:   -0.063080
  11 Cl:   -0.180145

-------------------------------
LOEWDIN REDUCED ORBITAL CHARGES
-------------------------------
  0 C s       :     2.876962  s :     2.876962
      pz      :     0.938356  p :     3.101798
      px      :     1.110305
      py      :     1.053136
      dz2     :     0.077566  d :     0.323520
      dxz     :     0.081921
      dyz     :     0.066686
      dx2y2   :     0.068182
      dxy     :     0.029165
      f0      :     0.007936  f :     0.038565
      f+1     :     0.005515
      f-1     :     0.008555
      f+2     :     0.004739
      f-2     :     0.007164
      f+3     :     0.002062
      f-3     :     0.002593
  1 N s       :     2.982366  s :     2.982366
      pz      :     1.251319  p :     3.718005
      px      :     1.255396
      py      :     1.211290
      dz2     :     0.038160  d :     0.180475
      dxz     :     0.053849
      dyz     :     0.026184
      dx2y2   :     0.045905
      dxy     :     0.016377
      f0      :     0.002853  f :     0.011570
      f+1     :     0.001053
      f-1     :     0.001430
      f+2     :     0.002046
      f-2     :     0.002012
      f+3     :     0.000789
      f-3     :     0.001387
  2 H s       :     0.691398  s :     0.691398
      pz      :     0.016034  p :     0.085564
      px      :     0.015561
      py      :     0.053968
  3 H s       :     0.697633  s :     0.697633
      pz      :     0.027473  p :     0.173040
      px      :     0.094780
      py      :     0.050787
  4 H s       :     0.718525  s :     0.718525
      pz      :     0.042077  p :     0.131414
      px      :     0.058385
      py      :     0.030952
  5 H s       :     0.805588  s :     0.805588
      pz      :     0.024904  p :     0.056726
      px      :     0.021120
      py      :     0.010702
  6 H s       :     0.819828  s :     0.819828
      pz      :     0.013693  p :     0.062838
      px      :     0.035867
      py      :     0.013279
  7 H s       :     0.793150  s :     0.793150
      pz      :     0.012539  p :     0.068563
      px      :     0.014754
      py      :     0.041270
  8 Pbs       :     3.688395  s :     3.688395
      pz      :     2.491647  p :     7.494828
      px      :     2.513633
      py      :     2.489548
      dz2     :     2.128954  d :    10.724171
      dxz     :     2.128369
      dyz     :     2.093849
      dx2y2   :     2.198902
      dxy     :     2.174097
      f0      :     0.017825  f :     0.236009
      f+1     :     0.026288
      f-1     :     0.024487
      f+2     :     0.026510
      f-2     :     0.027979
      f+3     :     0.035347
      f-3     :     0.077572
  9 Cls       :     5.767484  s :     5.767484
      pz      :     3.875622  p :    11.474059
      px      :     3.770429
      py      :     3.828008
      dz2     :     0.006949  d :     0.032511
      dxz     :     0.001889
      dyz     :     0.000873
      dx2y2   :     0.007210
      dxy     :     0.015590
      f0      :     0.000059  f :     0.001787
      f+1     :     0.000429
      f-1     :     0.000142
      f+2     :     0.000024
      f-2     :     0.000074
      f+3     :     0.000124
      f-3     :     0.000936
 10 Cls       :     5.653213  s :     5.653213
      pz      :     3.847197  p :    11.323104
      px      :     3.816845
      py      :     3.659062
      dz2     :     0.013577  d :     0.081459
      dxz     :     0.006247
      dyz     :     0.007843
      dx2y2   :     0.036685
      dxy     :     0.017107
      f0      :     0.000410  f :     0.005304
      f+1     :     0.000237
      f-1     :     0.001068
      f+2     :     0.000498
      f-2     :     0.000292
      f+3     :     0.001323
      f-3     :     0.001477
 11 Cls       :     5.729165  s :     5.729165
      pz      :     3.827375  p :    11.407226
      px      :     3.748948
      py      :     3.830903
      dz2     :     0.002984  d :     0.041112
      dxz     :     0.019593
      dyz     :     0.007030
      dx2y2   :     0.004053
      dxy     :     0.007453
      f0      :     0.000244  f :     0.002641
      f+1     :     0.000508
      f-1     :     0.000166
      f+2     :     0.000428
      f-2     :     0.000872
      f+3     :     0.000096
      f-3     :     0.000328


                      *****************************
                      * MAYER POPULATION ANALYSIS *
                      *****************************

  NA   - Mulliken gross atomic population
  ZA   - Total nuclear charge
  QA   - Mulliken gross atomic charge
  VA   - Mayer's total valence
  BVA  - Mayer's bonded valence
  FA   - Mayer's free valence

  ATOM       NA         ZA         QA         VA         BVA        FA
  0 C      6.2725     6.0000    -0.2725     3.7210     3.7210    -0.0000
  1 N      7.2656     7.0000    -0.2656     3.4015     3.4015    -0.0000
  2 H      0.7054     1.0000     0.2946     0.9096     0.9096    -0.0000
  3 H      0.6927     1.0000     0.3073     0.9754     0.9754     0.0000
  4 H      0.7415     1.0000     0.2585     0.9354     0.9354    -0.0000
  5 H      0.8245     1.0000     0.1755     0.9674     0.9674     0.0000
  6 H      0.8510     1.0000     0.1490     0.9596     0.9596    -0.0000
  7 H      0.8068     1.0000     0.1932     0.9889     0.9889     0.0000
  8 Pb    21.1442    22.0000     0.8558     1.9092     1.9092     0.0000
  9 Cl    17.5773    17.0000    -0.5773     0.7244     0.7244    -0.0000
 10 Cl    17.5887    17.0000    -0.5887     0.6562     0.6562    -0.0000
 11 Cl    17.5297    17.0000    -0.5297     0.8085     0.8085     0.0000

  Mayer bond orders larger than 0.1
B(  0-C ,  1-N ) :   0.8833 B(  0-C ,  5-H ) :   0.9662 B(  0-C ,  6-H ) :   0.9538 
B(  0-C ,  7-H ) :   0.9447 B(  1-N ,  2-H ) :   0.8842 B(  1-N ,  3-H ) :   0.7492 
B(  1-N ,  4-H ) :   0.9238 B(  3-H , 10-Cl) :   0.2007 B(  8-Pb,  9-Cl) :   0.6894 
B(  8-Pb, 10-Cl) :   0.4175 B(  8-Pb, 11-Cl) :   0.7884 

-------
TIMINGS
-------

Total SCF time: 0 days 0 hours 6 min 12 sec 

Total time                  ....     372.501 sec
Sum of individual times     ....     348.310 sec  ( 93.5%)

Fock matrix formation       ....     343.458 sec  ( 92.2%)
  Coulomb formation         ....     286.176 sec  ( 83.3% of F)
  Split-RI-J                ....      20.057 sec  (  5.8% of F)
  Chain of spheres X        ....     289.391 sec  ( 84.3% of F)
  COS-X 1 center corr.      ....       0.000 sec  (  0.0% of F)
  XC integration            ....      57.267 sec  ( 16.7% of F)
    Basis function eval.    ....      17.502 sec  ( 30.6% of XC)
    Density eval.           ....      15.085 sec  ( 26.3% of XC)
    XC-Functional eval.     ....       3.717 sec  (  6.5% of XC)
    XC-Potential eval.      ....      20.021 sec  ( 35.0% of XC)
Diagonalization             ....       0.658 sec  (  0.2%)
Density matrix formation    ....       0.056 sec  (  0.0%)
Population analysis         ....       0.067 sec  (  0.0%)
Initial guess               ....       0.139 sec  (  0.0%)
Orbital Transformation      ....       0.000 sec  (  0.0%)
Orbital Orthonormalization  ....       0.135 sec  (  0.0%)
DIIS solution               ....       0.191 sec  (  0.1%)
SOSCF solution              ....       0.108 sec  (  0.0%)
Grid generation             ....       3.633 sec  (  1.0%)

------------------------------------------------------------------------------
                              ORCA MP2 CALCULATION
------------------------------------------------------------------------------


----------------------
RI-MP2 ENERGY+GRADIENT
----------------------
Dimension of the basis                    ...  259
Memory devoted to MP2                     ... 1000 MB   
Data format for buffers                   ... DOUBLE
Compression type for matrix containers    ... UNCOMPRESSED
Overall scaling of the MP2 energy         ...   2.700e-01 Eh
Calculating two index integrals           ... done (    0.019 sec)
Cholesky decomposition of the V-matrix    ... done
Cholesky decomposition of V**-1           ... done (    0.044 sec)

-----------------
RI-TRANSFORMATION (AUX index driven)
-----------------

Dimension of the orbital-basis         ... 259
Dimension of the aux-basis             ... 493
Transformation of internal MOs         ...    0-  45
Transformation of internal/external MOs...    0-  45 to   46- 258
Number Format for Storage              ... Double (8 Byte)
Integral mode                          ... Direct

First Phase: integral generation and transformation of MO indices
  Aux angular momentum 0               ... done (    0.653 sec)
  Aux angular momentum 1               ... done (    0.317 sec)
  Aux angular momentum 2               ... done (    0.377 sec)
  Aux angular momentum 3               ... done (    0.217 sec)
  Aux angular momentum 4               ... done (    0.190 sec)
Closing buffer VIJ ( 0.00 GB; CompressionRatio= 1.95)
Closing buffer VIA ( 0.04 GB; CompressionRatio= 1.00)
  Phase 1 completed in     1.929 sec
Second Phase: sorting and transformation of aux index

IJ-Transformation
Memory available                       ... 990 MB 
Max. # MO pairs treated in a batch     ... 46    
# of internal orbitals                 ... 46
# batches for internal orbitals        ... 1
Closing buffer IJV ( 0.00 GB; CompressionRatio= 1.00)
(ij|v) transformation done in     0.109 sec

IA-Transformation
Memory available                       ... 990 MB 
Max. # MO pairs treated in a batch     ... 46    
# of internal orbitals                 ... 46
# batches for internal orbitals        ... 1
Closing buffer IAV ( 0.04 GB; CompressionRatio= 1.00)
(ia|v) transformation done in     0.472 sec

  Phase 2 completed in     0.599 sec
RI-Integral transformation completed in     2.529 sec
Opening buffers                              ... done

Starting loop over batches of integrals:

Operator 0  - window                       ... (  0- 45)x( 46-258)
Operator 0  - Memory available             ...  1000 MB
Operator 0  - Memory needed per MO         ...   1.6 MB
Operator 0  - Number of orbitals per batch ... 46
Operator 0  - Number of batches            ... 1

OPERATOR  0   PASS   0:  MOs     0 ...   45
  Reading integrals       ... ok
  Internal MO   2
  Internal MO   5
  Internal MO   8
  Internal MO  11
  Internal MO  14
  Internal MO  17
  Internal MO  20
  Internal MO  23
  Internal MO  26
  Internal MO  29
  Internal MO  32
  Internal MO  35
  Internal MO  38
  Internal MO  41
  Internal MO  44
Closing buffer GIPV ( 0.04 GB; CompressionRatio= 1.00)
Time spent in pair loops =    50.690 sec

-----------------------------------------------
 RI-MP2 CORRELATION ENERGY:     -0.581635937 Eh
-----------------------------------------------


---------------------
MP2 DENSITY FORMATION
---------------------

Completing the external part of the density      ... done
Storing the unrelaxed density                    ... done

Calculating the xc-kernel                        ... done
Calculating G(D)                                 ... done
Completing the Lagrangian                        ... done
Solving the Z-vector equations                   ... 

------------------------------------------------------------------------------
                           ORCA CP-SCF CALCULATION
------------------------------------------------------------------------------

Input orbitals are from        ... PbMACl3_mp2_md_9.orca.gbw
Input Perturbation             ... PbMACl3_mp2_md_9.orca.pin.tmp
Wavefunction output            ... PbMACl3_mp2_md_9.orca.pout.tmp
Perturbation mode              ... Real perturbation
Solver                         ... DIIS
   MaxDIIS                     ... 20
   Levelshift                  ...    3.000e-01 Eh
Max. number of iterations      ... 128
Convergence tolerance          ... 1.000e-08
Integral handling              ... Direct
COSX GridX                     ... 1
Number of perturbations        ... 1
Number of operators            ... 1
Orbital ranges used for CP-SCF:
 Operator 0:  Orbitals   0... 45  to  46...258
DFT calculation                         ... on
Exchange functional (SCF)               ... B88
Exchange functional (CP-SCF)            ... B88
   X-Alpha parameter    XAlpha (SCF)    ...  0.666667
   X-Alpha parameter    XAlpha (CP-SCF) ...  0.666667
   Becke's b parameter  XBeta (SCF)     ...  0.004200
   Becke's b parameter  XBeta (CP-SCF)  ...  0.004200
Correlation functional (SCF)            ... LYP
Correlation functional (CP-SCF)         ... LYP
 LDA part of GGA corr.  LDAOpt (SCF)    ... VWN-3
 LDA part of GGA corr.  LDAOpt (CP-SCF) ... VWN-3
Hybrid DFT                              ... on
   Exchange mixing (SCF)                ...  0.530
   Exchange mixing (CP-SCF)             ...  0.530
   GGA exch. scaling(SCF)               ...  0.470
   GGA exch. scaling (CP-SCF)           ...  0.470
   GGA corr. scaling (SCF)              ...  0.730
   GGA corr. scaling (CP-SCF)           ...  0.730
The RIJCOSX approximation is active
Variables per vector in CP-SCF ... 9798
Number of vectors sought       ... 1
Calculating the xc-kernel      ... done

Solving the CP-SCF equations by a DIIS algorithm

-----------------
CP-SCF ITERATIONS
-----------------
  Iteration   0: MaxR=  0.084504142
  Iteration   1: MaxR=  0.037179307
  Iteration   2: MaxR=  0.012468238
  Iteration   3: MaxR=  0.005686496
  Iteration   4: MaxR=  0.003205917
  Iteration   5: MaxR=  0.001410343
  Iteration   6: MaxR=  0.000591358
  Iteration   7: MaxR=  0.000190782
  Iteration   8: MaxR=  0.000080352
  Iteration   9: MaxR=  0.000029335
  Iteration  10: MaxR=  0.000013321
  Iteration  11: MaxR=  0.000004989
  Iteration  12: MaxR=  0.000002172
  Iteration  13: MaxR=  0.000000747
  Iteration  14: MaxR=  0.000000241
  Iteration  15: MaxR=  0.000000089
  Iteration  16: MaxR=  0.000000032
  Iteration  17: MaxR=  0.000000015
  Iteration  18: MaxR=  0.000000006
                              *** THE CP-SCF HAS CONVERGED *** 
done
Finalizing the relaxed density                   ... done
Transforming P to the AO basis                   ... done
Storing the relaxed density                      ... done

------------------------------------
ENERGY WEIGHTED DENSITY FINALIZATION
------------------------------------

Gathering the parts of the W-matrix              ... done
Forming the Z-density                            ... done
Transforming Z to the AO basis                   ... done
Calculating G(Z)                                 ... done
Finalizing the W-matrix                          ... done
Transforming W to the AO basis and storing       ... done
Entering the RIJONX and RIJCOSX sections
Starting the three-index derivative integrals:
Operator 0  - Memory available             ...  1000 MB
Operator 0  - Memory needed per MO         ...   1.0 MB
Operator 0  - Number of orbitals per batch ... 46
Operator 0  - Number of batches            ... 1

OPERATOR  0   PASS   0:  MOs     0 ...   45

----------------------------------
MP2 DERIVATIVE INTEGRAL GENERATION
----------------------------------


Input Correlated Electron Density   ... PbMACl3_mp2_md_9.orca.pmp2re
Input Energy Weighted Density       ... PbMACl3_mp2_md_9.orca.wmp2.tmp
Input SCF Electron Density          ... PbMACl3_mp2_md_9.orca.scfp.tmp

One-Electron Terms    ...
  ECP gradient                                           ... One-Electron Terms done

-----------------------------------------------------------
MP2 COSX Grid Generation
-----------------------------------------------------------

General Integration Accuracy     IntAcc      ...  4.340
Radial Grid Type                 RadialGrid  ... Gauss-Chebyshev
Angular Grid (max. acc.)         AngularGrid ... Lebedev-302
Angular grid pruning method      GridPruning ... 3 (G Style)
Weight generation scheme         WeightScheme... Becke
Basis function cutoff            BFCut       ...    1.0000e-11
Integration weight cutoff        WCut        ...    1.0000e-14
Grids for H and He will be reduced by one unit

# of grid points (after initial pruning)     ...  57718 (   0.0 sec)
# of grid points (after weights+screening)   ...  54701 (   0.1 sec)
nearest neighbour list constructed           ...    0.0 sec
Grid point re-assignment to atoms done       ...    0.0 sec
Grid point division into batches done        ...    0.2 sec
Reduced shell lists constructed in    0.9 sec

Total number of grid points                  ...    54701
Total number of batches                      ...      861
Average number of points per batch           ...       63
Average number of grid points per atom       ...     4558
Average number of shells per batch           ...    52.14 (51.62%)
Average number of basis functions per batch  ...   136.79 (52.81%)
Average number of large shells per batch     ...    39.30 (75.39%)
Average number of large basis fcns per batch ...   102.25 (74.75%)
Maximum spatial batch extension              ...  29.63, 35.78, 32.12 au
Average spatial batch extension              ...   3.15,  3.06,  3.35 au

Overlap Fitting                  UseSFitting ... on
Two electron COSX terms .... 
Integration Timings:
Total Time                  =    95.6 sec
Basis fcn evaluation        =     0.3 sec
Density evaluation          =     0.9 sec
Integral evaluation         =    92.7 sec
K(P) evaluation             =     0.8 sec
                          .... COSX two electron terms done
COSX two-electron contribution to the gradient
     0:    -0.006720     0.045688    -0.055808
     1:    -0.075606    -0.074970     0.069956
     2:    -0.010755     0.196966     0.037608
     3:    -0.146072    -0.017103    -0.098339
     4:     0.185475    -0.046946    -0.126095
     5:    -0.097648     0.029776     0.134851
     6:     0.148412     0.025944     0.065119
     7:    -0.022619    -0.164395    -0.041998
     8:     0.004650     0.035108    -0.035847
     9:     0.058474    -0.037534    -0.008186
    10:     0.024401     0.040951     0.013333
    11:    -0.063545    -0.033896     0.044610
Exchange-correlation gradient    ... done
Dispersion correction            ... 
Entering the calculation of the dispersion correction...

Checking the input atom types...

Done
done

                *********************************************
                * UNRELAXED MP2 DENSITY POPULATION ANALYSIS *
                *********************************************

------------------------------------------------------------------------------
                           ORCA POPULATION ANALYSIS
------------------------------------------------------------------------------
Input electron density              ... PbMACl3_mp2_md_9.orca.pmp2ur
BaseName (.gbw .S,...)              ... PbMACl3_mp2_md_9.orca

                    ********************************
                    * MULLIKEN POPULATION ANALYSIS *
                    ********************************

-----------------------
MULLIKEN ATOMIC CHARGES
-----------------------
   0 C :   -0.276867
   1 N :   -0.265066
   2 H :    0.294316
   3 H :    0.306274
   4 H :    0.258999
   5 H :    0.176546
   6 H :    0.149947
   7 H :    0.193383
   8 Pb:    0.840040
   9 Cl:   -0.570853
  10 Cl:   -0.583584
  11 Cl:   -0.523133
Sum of atomic charges:    0.0000000

--------------------------------
MULLIKEN REDUCED ORBITAL CHARGES
--------------------------------
  0 C s       :     3.281203  s :     3.281203
      pz      :     0.821620  p :     2.906720
      px      :     1.074746
      py      :     1.010355
      dz2     :     0.016787  d :     0.081218
      dxz     :     0.019186
      dyz     :     0.015754
      dx2y2   :     0.018894
      dxy     :     0.010596
      f0      :     0.001224  f :     0.007726
      f+1     :     0.001230
      f-1     :     0.001532
      f+2     :     0.001550
      f-2     :     0.001002
      f+3     :     0.000434
      f-3     :     0.000753
  1 N s       :     3.417662  s :     3.417662
      pz      :     1.247952  p :     3.781080
      px      :     1.294606
      py      :     1.238523
      dz2     :     0.014021  d :     0.062780
      dxz     :     0.017008
      dyz     :     0.008477
      dx2y2   :     0.015896
      dxy     :     0.007378
      f0      :     0.000632  f :     0.003544
      f+1     :     0.000331
      f-1     :     0.000516
      f+2     :     0.000928
      f-2     :     0.000356
      f+3     :     0.000282
      f-3     :     0.000500
  2 H s       :     0.675927  s :     0.675927
      pz      :     0.005538  p :     0.029757
      px      :     0.005485
      py      :     0.018734
  3 H s       :     0.640257  s :     0.640257
      pz      :     0.010065  p :     0.053469
      px      :     0.027657
      py      :     0.015747
  4 H s       :     0.699544  s :     0.699544
      pz      :     0.013611  p :     0.041457
      px      :     0.018725
      py      :     0.009120
  5 H s       :     0.802030  s :     0.802030
      pz      :     0.009989  p :     0.021425
      px      :     0.007769
      py      :     0.003667
  6 H s       :     0.827486  s :     0.827486
      pz      :     0.005226  p :     0.022567
      px      :     0.013057
      py      :     0.004283
  7 H s       :     0.780763  s :     0.780763
      pz      :     0.004562  p :     0.025854
      px      :     0.005828
      py      :     0.015464
  8 Pbs       :     3.912191  s :     3.912191
      pz      :     2.386268  p :     7.006690
      px      :     2.342590
      py      :     2.277832
      dz2     :     2.026586  d :    10.132117
      dxz     :     2.030079
      dyz     :     2.015346
      dx2y2   :     2.033608
      dxy     :     2.026498
      f0      :     0.011442  f :     0.108962
      f+1     :     0.013787
      f-1     :     0.011523
      f+2     :     0.014653
      f-2     :     0.014071
      f+3     :     0.018777
      f-3     :     0.024708
  9 Cls       :     5.948440  s :     5.948440
      pz      :     3.909934  p :    11.564060
      px      :     3.797173
      py      :     3.856952
      dz2     :     0.010330  d :     0.054908
      dxz     :     0.009756
      dyz     :     0.008664
      dx2y2   :     0.011875
      dxy     :     0.014283
      f0      :     0.000438  f :     0.003446
      f+1     :     0.000513
      f-1     :     0.000421
      f+2     :     0.000406
      f-2     :     0.000462
      f+3     :     0.000532
      f-3     :     0.000673
 10 Cls       :     5.949576  s :     5.949576
      pz      :     3.908339  p :    11.554610
      px      :     3.908605
      py      :     3.737666
      dz2     :     0.013224  d :     0.074313
      dxz     :     0.011317
      dyz     :     0.011987
      dx2y2   :     0.021253
      dxy     :     0.016531
      f0      :     0.000619  f :     0.005085
      f+1     :     0.000505
      f-1     :     0.000754
      f+2     :     0.000679
      f-2     :     0.000548
      f+3     :     0.001030
      f-3     :     0.000949
 11 Cls       :     5.942844  s :     5.942844
      pz      :     3.865395  p :    11.517453
      px      :     3.780523
      py      :     3.871535
      dz2     :     0.010611  d :     0.059018
      dxz     :     0.015020
      dyz     :     0.010837
      dx2y2   :     0.010733
      dxy     :     0.011818
      f0      :     0.000505  f :     0.003818
      f+1     :     0.000601
      f-1     :     0.000453
      f+2     :     0.000582
      f-2     :     0.000663
      f+3     :     0.000485
      f-3     :     0.000529


                     *******************************
                     * LOEWDIN POPULATION ANALYSIS *
                     *******************************

----------------------
LOEWDIN ATOMIC CHARGES
----------------------
   0 C :   -0.343896
   1 N :    0.107239
   2 H :    0.222810
   3 H :    0.129046
   4 H :    0.150432
   5 H :    0.138446
   6 H :    0.118043
   7 H :    0.138787
   8 Pb:   -0.154345
   9 Cl:   -0.270753
  10 Cl:   -0.060405
  11 Cl:   -0.175405

-------------------------------
LOEWDIN REDUCED ORBITAL CHARGES
-------------------------------
  0 C s       :     2.876289  s :     2.876289
      pz      :     0.936527  p :     3.094454
      px      :     1.107451
      py      :     1.050477
      dz2     :     0.079206  d :     0.332785
      dxz     :     0.083664
      dyz     :     0.068483
      dx2y2   :     0.070195
      dxy     :     0.031237
      f0      :     0.008160  f :     0.040367
      f+1     :     0.005786
      f-1     :     0.008869
      f+2     :     0.005045
      f-2     :     0.007376
      f+3     :     0.002291
      f-3     :     0.002840
  1 N s       :     2.981662  s :     2.981662
      pz      :     1.247131  p :     3.706801
      px      :     1.251906
      py      :     1.207764
      dz2     :     0.040240  d :     0.191389
      dxz     :     0.056022
      dyz     :     0.028453
      dx2y2   :     0.048178
      dxy     :     0.018495
      f0      :     0.003036  f :     0.012909
      f+1     :     0.001236
      f-1     :     0.001639
      f+2     :     0.002264
      f-2     :     0.002192
      f+3     :     0.000961
      f-3     :     0.001580
  2 H s       :     0.690219  s :     0.690219
      pz      :     0.016377  p :     0.086971
      px      :     0.015898
      py      :     0.054697
  3 H s       :     0.696990  s :     0.696990
      pz      :     0.027922  p :     0.173964
      px      :     0.095018
      py      :     0.051025
  4 H s       :     0.716814  s :     0.716814
      pz      :     0.042540  p :     0.132754
      px      :     0.058983
      py      :     0.031231
  5 H s       :     0.803033  s :     0.803033
      pz      :     0.025640  p :     0.058521
      px      :     0.021727
      py      :     0.011153
  6 H s       :     0.817224  s :     0.817224
      pz      :     0.014202  p :     0.064733
      px      :     0.036785
      py      :     0.013745
  7 H s       :     0.790792  s :     0.790792
      pz      :     0.013044  p :     0.070421
      px      :     0.015242
      py      :     0.042136
  8 Pbs       :     3.671273  s :     3.671273
      pz      :     2.499515  p :     7.518500
      px      :     2.521834
      py      :     2.497151
      dz2     :     2.122455  d :    10.692998
      dxz     :     2.122268
      dyz     :     2.087870
      dx2y2   :     2.192565
      dxy     :     2.167841
      f0      :     0.023041  f :     0.271573
      f+1     :     0.031366
      f-1     :     0.029597
      f+2     :     0.031709
      f-2     :     0.033100
      f+3     :     0.040642
      f-3     :     0.082119
  9 Cls       :     5.763046  s :     5.763046
      pz      :     3.861545  p :    11.432033
      px      :     3.756492
      py      :     3.813996
      dz2     :     0.014621  d :     0.071153
      dxz     :     0.009625
      dyz     :     0.008543
      dx2y2   :     0.014991
      dxy     :     0.023372
      f0      :     0.000439  f :     0.004522
      f+1     :     0.000819
      f-1     :     0.000516
      f+2     :     0.000408
      f-2     :     0.000463
      f+3     :     0.000531
      f-3     :     0.001346
 10 Cls       :     5.649122  s :     5.649122
      pz      :     3.832786  p :    11.280640
      px      :     3.802313
      py      :     3.645541
      dz2     :     0.021640  d :     0.122299
      dxz     :     0.014301
      dyz     :     0.016079
      dx2y2   :     0.044960
      dxy     :     0.025318
      f0      :     0.000822  f :     0.008343
      f+1     :     0.000636
      f-1     :     0.001501
      f+2     :     0.000928
      f-2     :     0.000717
      f+3     :     0.001794
      f-3     :     0.001946
 11 Cls       :     5.724803  s :     5.724803
      pz      :     3.813347  p :    11.365526
      px      :     3.735195
      py      :     3.816984
      dz2     :     0.010721  d :     0.079647
      dxz     :     0.027300
      dyz     :     0.014740
      dx2y2   :     0.011743
      dxy     :     0.015143
      f0      :     0.000643  f :     0.005429
      f+1     :     0.000915
      f-1     :     0.000555
      f+2     :     0.000830
      f-2     :     0.001279
      f+3     :     0.000486
      f-3     :     0.000721


                      *****************************
                      * MAYER POPULATION ANALYSIS *
                      *****************************

  NA   - Mulliken gross atomic population
  ZA   - Total nuclear charge
  QA   - Mulliken gross atomic charge
  VA   - Mayer's total valence
  BVA  - Mayer's bonded valence
  FA   - Mayer's free valence

  ATOM       NA         ZA         QA         VA         BVA        FA
  0 C      6.2769     6.0000    -0.2769     3.7699     3.6512     0.1188
  1 N      7.2651     7.0000    -0.2651     3.4737     3.3353     0.1384
  2 H      0.7057     1.0000     0.2943     0.9117     0.8914     0.0203
  3 H      0.6937     1.0000     0.3063     0.9775     0.9579     0.0196
  4 H      0.7410     1.0000     0.2590     0.9372     0.9215     0.0157
  5 H      0.8235     1.0000     0.1765     0.9696     0.9502     0.0194
  6 H      0.8501     1.0000     0.1499     0.9625     0.9431     0.0194
  7 H      0.8066     1.0000     0.1934     0.9919     0.9712     0.0207
  8 Pb    21.1600    22.0000     0.8400     2.2225     1.8518     0.3707
  9 Cl    17.5709    17.0000    -0.5709     0.9641     0.7015     0.2626
 10 Cl    17.5836    17.0000    -0.5836     0.9004     0.6372     0.2633
 11 Cl    17.5231    17.0000    -0.5231     1.0443     0.7832     0.2611

  Mayer bond orders larger than 0.1
B(  0-C ,  1-N ) :   0.8620 B(  0-C ,  5-H ) :   0.9498 B(  0-C ,  6-H ) :   0.9383 
B(  0-C ,  7-H ) :   0.9284 B(  1-N ,  2-H ) :   0.8671 B(  1-N ,  3-H ) :   0.7365 
B(  1-N ,  4-H ) :   0.9106 B(  3-H , 10-Cl) :   0.1971 B(  8-Pb,  9-Cl) :   0.6684 
B(  8-Pb, 10-Cl) :   0.4055 B(  8-Pb, 11-Cl) :   0.7647 


                *******************************************
                * RELAXED MP2 DENSITY POPULATION ANALYSIS *
                *******************************************

------------------------------------------------------------------------------
                           ORCA POPULATION ANALYSIS
------------------------------------------------------------------------------
Input electron density              ... PbMACl3_mp2_md_9.orca.pmp2re
BaseName (.gbw .S,...)              ... PbMACl3_mp2_md_9.orca

                    ********************************
                    * MULLIKEN POPULATION ANALYSIS *
                    ********************************

-----------------------
MULLIKEN ATOMIC CHARGES
-----------------------
   0 C :   -0.293585
   1 N :   -0.264861
   2 H :    0.293159
   3 H :    0.296753
   4 H :    0.260481
   5 H :    0.180180
   6 H :    0.152950
   7 H :    0.195407
   8 Pb:    0.782693
   9 Cl:   -0.547020
  10 Cl:   -0.556735
  11 Cl:   -0.499422
Sum of atomic charges:    0.0000000

--------------------------------
MULLIKEN REDUCED ORBITAL CHARGES
--------------------------------
  0 C s       :     3.283520  s :     3.283520
      pz      :     0.828179  p :     2.925333
      px      :     1.080944
      py      :     1.016210
      dz2     :     0.016100  d :     0.077172
      dxz     :     0.018112
      dyz     :     0.014940
      dx2y2   :     0.017432
      dxy     :     0.010588
      f0      :     0.001207  f :     0.007560
      f+1     :     0.001207
      f-1     :     0.001487
      f+2     :     0.001516
      f-2     :     0.000984
      f+3     :     0.000427
      f-3     :     0.000733
  1 N s       :     3.419314  s :     3.419314
      pz      :     1.245206  p :     3.780642
      px      :     1.295989
      py      :     1.239446
      dz2     :     0.013883  d :     0.061421
      dxz     :     0.016681
      dyz     :     0.008100
      dx2y2   :     0.015235
      dxy     :     0.007522
      f0      :     0.000629  f :     0.003484
      f+1     :     0.000329
      f-1     :     0.000496
      f+2     :     0.000905
      f-2     :     0.000355
      f+3     :     0.000280
      f-3     :     0.000490
  2 H s       :     0.677445  s :     0.677445
      pz      :     0.005604  p :     0.029396
      px      :     0.005593
      py      :     0.018199
  3 H s       :     0.650268  s :     0.650268
      pz      :     0.010014  p :     0.052978
      px      :     0.027225
      py      :     0.015739
  4 H s       :     0.698488  s :     0.698488
      pz      :     0.013446  p :     0.041031
      px      :     0.018426
      py      :     0.009159
  5 H s       :     0.798795  s :     0.798795
      pz      :     0.009660  p :     0.021025
      px      :     0.007636
      py      :     0.003728
  6 H s       :     0.824824  s :     0.824824
      pz      :     0.005216  p :     0.022226
      px      :     0.012629
      py      :     0.004381
  7 H s       :     0.779086  s :     0.779086
      pz      :     0.004622  p :     0.025508
      px      :     0.005914
      py      :     0.014973
  8 Pbs       :     3.924476  s :     3.924476
      pz      :     2.388783  p :     7.053178
      px      :     2.363868
      py      :     2.300527
      dz2     :     2.025645  d :    10.132588
      dxz     :     2.029762
      dyz     :     2.016235
      dx2y2   :     2.034192
      dxy     :     2.026754
      f0      :     0.011302  f :     0.107064
      f+1     :     0.013448
      f-1     :     0.011278
      f+2     :     0.014465
      f-2     :     0.013805
      f+3     :     0.018638
      f-3     :     0.024128
  9 Cls       :     5.949229  s :     5.949229
      pz      :     3.901373  p :    11.539540
      px      :     3.788740
      py      :     3.849426
      dz2     :     0.010309  d :     0.054796
      dxz     :     0.009747
      dyz     :     0.008638
      dx2y2   :     0.011893
      dxy     :     0.014209
      f0      :     0.000440  f :     0.003455
      f+1     :     0.000512
      f-1     :     0.000421
      f+2     :     0.000407
      f-2     :     0.000465
      f+3     :     0.000538
      f-3     :     0.000672
 10 Cls       :     5.949365  s :     5.949365
      pz      :     3.900517  p :    11.526228
      px      :     3.900190
      py      :     3.725522
      dz2     :     0.013439  d :     0.076027
      dxz     :     0.011505
      dyz     :     0.012200
      dx2y2   :     0.021860
      dxy     :     0.017022
      f0      :     0.000625  f :     0.005115
      f+1     :     0.000508
      f-1     :     0.000753
      f+2     :     0.000683
      f-2     :     0.000553
      f+3     :     0.001045
      f-3     :     0.000948
 11 Cls       :     5.943533  s :     5.943533
      pz      :     3.855772  p :    11.493164
      px      :     3.772738
      py      :     3.864654
      dz2     :     0.010624  d :     0.058900
      dxz     :     0.015020
      dyz     :     0.010866
      dx2y2   :     0.010689
      dxy     :     0.011701
      f0      :     0.000505  f :     0.003825
      f+1     :     0.000603
      f-1     :     0.000455
      f+2     :     0.000584
      f-2     :     0.000661
      f+3     :     0.000488
      f-3     :     0.000529


                     *******************************
                     * LOEWDIN POPULATION ANALYSIS *
                     *******************************

----------------------
LOEWDIN ATOMIC CHARGES
----------------------
   0 C :   -0.353680
   1 N :    0.103267
   2 H :    0.223271
   3 H :    0.125946
   4 H :    0.151022
   5 H :    0.140658
   6 H :    0.119993
   7 H :    0.140608
   8 Pb:   -0.184061
   9 Cl:   -0.255446
  10 Cl:   -0.050121
  11 Cl:   -0.161456

-------------------------------
LOEWDIN REDUCED ORBITAL CHARGES
-------------------------------
  0 C s       :     2.878134  s :     2.878134
      pz      :     0.940632  p :     3.107066
      px      :     1.111471
      py      :     1.054964
      dz2     :     0.078454  d :     0.328384
      dxz     :     0.082540
      dyz     :     0.067379
      dx2y2   :     0.068689
      dxy     :     0.031323
      f0      :     0.008141  f :     0.040096
      f+1     :     0.005731
      f-1     :     0.008787
      f+2     :     0.004991
      f-2     :     0.007354
      f+3     :     0.002286
      f-3     :     0.002806
  1 N s       :     2.983472  s :     2.983472
      pz      :     1.246533  p :     3.708894
      px      :     1.253273
      py      :     1.209088
      dz2     :     0.040343  d :     0.191395
      dxz     :     0.055959
      dyz     :     0.028397
      dx2y2   :     0.047882
      dxy     :     0.018815
      f0      :     0.003053  f :     0.012972
      f+1     :     0.001237
      f-1     :     0.001653
      f+2     :     0.002260
      f-2     :     0.002212
      f+3     :     0.000965
      f-3     :     0.001592
  2 H s       :     0.689866  s :     0.689866
      pz      :     0.016481  p :     0.086864
      px      :     0.016066
      py      :     0.054316
  3 H s       :     0.700142  s :     0.700142
      pz      :     0.027915  p :     0.173912
      px      :     0.095019
      py      :     0.050978
  4 H s       :     0.716380  s :     0.716380
      pz      :     0.042405  p :     0.132599
      px      :     0.058947
      py      :     0.031247
  5 H s       :     0.800799  s :     0.800799
      pz      :     0.025479  p :     0.058543
      px      :     0.021740
      py      :     0.011324
  6 H s       :     0.815071  s :     0.815071
      pz      :     0.014321  p :     0.064936
      px      :     0.036622
      py      :     0.013994
  7 H s       :     0.788809  s :     0.788809
      pz      :     0.013209  p :     0.070583
      px      :     0.015447
      py      :     0.041928
  8 Pbs       :     3.683075  s :     3.683075
      pz      :     2.497638  p :     7.545722
      px      :     2.536606
      py      :     2.511478
      dz2     :     2.120128  d :    10.686516
      dxz     :     2.120959
      dyz     :     2.087577
      dx2y2   :     2.191311
      dxy     :     2.166540
      f0      :     0.022729  f :     0.268748
      f+1     :     0.030904
      f-1     :     0.029158
      f+2     :     0.031328
      f-2     :     0.032735
      f+3     :     0.040326
      f-3     :     0.081568
  9 Cls       :     5.765928  s :     5.765928
      pz      :     3.854111  p :    11.413102
      px      :     3.750683
      py      :     3.808308
      dz2     :     0.014778  d :     0.071835
      dxz     :     0.009638
      dyz     :     0.008535
      dx2y2   :     0.015161
      dxy     :     0.023723
      f0      :     0.000441  f :     0.004582
      f+1     :     0.000832
      f-1     :     0.000521
      f+2     :     0.000409
      f-2     :     0.000466
      f+3     :     0.000541
      f-3     :     0.001372
 10 Cls       :     5.652729  s :     5.652729
      pz      :     3.827659  p :    11.263775
      px      :     3.796648
      py      :     3.639468
      dz2     :     0.022102  d :     0.125177
      dxz     :     0.014497
      dyz     :     0.016275
      dx2y2   :     0.046372
      dxy     :     0.025932
      f0      :     0.000829  f :     0.008440
      f+1     :     0.000637
      f-1     :     0.001527
      f+2     :     0.000931
      f-2     :     0.000724
      f+3     :     0.001811
      f-3     :     0.001981
 11 Cls       :     5.727922  s :     5.727922
      pz      :     3.805704  p :    11.347280
      px      :     3.729716
      py      :     3.811860
      dz2     :     0.010743  d :     0.080728
      dxz     :     0.027801
      dyz     :     0.014963
      dx2y2   :     0.011881
      dxy     :     0.015340
      f0      :     0.000655  f :     0.005526
      f+1     :     0.000924
      f-1     :     0.000559
      f+2     :     0.000849
      f-2     :     0.001309
      f+3     :     0.000493
      f-3     :     0.000736


                      *****************************
                      * MAYER POPULATION ANALYSIS *
                      *****************************

  NA   - Mulliken gross atomic population
  ZA   - Total nuclear charge
  QA   - Mulliken gross atomic charge
  VA   - Mayer's total valence
  BVA  - Mayer's bonded valence
  FA   - Mayer's free valence

  ATOM       NA         ZA         QA         VA         BVA        FA
  0 C      6.2936     6.0000    -0.2936     3.7659     3.6474     0.1185
  1 N      7.2649     7.0000    -0.2649     3.4766     3.3385     0.1381
  2 H      0.7068     1.0000     0.2932     0.9126     0.8924     0.0202
  3 H      0.7032     1.0000     0.2968     0.9872     0.9679     0.0193
  4 H      0.7395     1.0000     0.2605     0.9367     0.9211     0.0156
  5 H      0.8198     1.0000     0.1802     0.9689     0.9495     0.0193
  6 H      0.8471     1.0000     0.1529     0.9618     0.9425     0.0193
  7 H      0.8046     1.0000     0.1954     0.9963     0.9757     0.0206
  8 Pb    21.2173    22.0000     0.7827     2.3163     1.9519     0.3644
  9 Cl    17.5470    17.0000    -0.5470     1.0072     0.7463     0.2609
 10 Cl    17.5567    17.0000    -0.5567     0.9568     0.6950     0.2618
 11 Cl    17.4994    17.0000    -0.4994     1.0872     0.8279     0.2594

  Mayer bond orders larger than 0.1
B(  0-C ,  1-N ) :   0.8703 B(  0-C ,  5-H ) :   0.9468 B(  0-C ,  6-H ) :   0.9337 
B(  0-C ,  7-H ) :   0.9234 B(  1-N ,  2-H ) :   0.8649 B(  1-N ,  3-H ) :   0.7293 
B(  1-N ,  4-H ) :   0.9085 B(  3-H , 10-Cl) :   0.2115 B(  8-Pb,  9-Cl) :   0.7050 
B(  8-Pb, 10-Cl) :   0.4268 B(  8-Pb, 11-Cl) :   0.8029 


-------
TIMINGS
-------

Total time                :  503.932 sec
Integral trafo            :    2.537 sec (  0.5%)
I/O of integrals          :    0.102 sec (  0.0%)
K(i,j) Operators          :    8.372 sec (  1.7%)
T(i,j) pair energies      :    1.129 sec (  0.2%)
V-calculation             :    0.019 sec (  0.0%)
V**(-1/2)                 :    0.044 sec (  0.0%)
Gamma(ia|P)               :    8.128 sec (  1.6%)
Gamma-Trafo               :    1.097 sec (  0.2%)
D(virtual)                :    3.649 sec (  0.7%)
D(internal)               :    3.489 sec (  0.7%)
W(virtual)                :    7.293 sec (  1.4%)
W(internal)               :   12.342 sec (  2.4%)
L(virtual)                :    4.693 sec (  0.9%)
L(internal)               :    0.175 sec (  0.0%)
G(D)                      :   13.861 sec (  2.8%)
G(Z)                      :   14.069 sec (  2.8%)
Z-Vector Solution         :  306.566 sec ( 60.8%)
Z-Vector Solution         :  306.566 sec ( 60.8%)
3-Index Derivative 
+ Separable RIJ part      :    4.097 sec (  0.8%)
2-Index Derivative 
+ Separable RIJ part      :    0.034 sec (  0.0%)
Separable Gradient (COSX) :  109.717 sec ( 21.8%)


---------------------------------------
MP2 TOTAL ENERGY:    -1669.509917456 Eh
---------------------------------------

The final MP2 gradient
  0:   0.00796780   0.02297729  -0.03936990
  1:   0.04655475  -0.10307292  -0.07229377
  2:  -0.00544568   0.04061373   0.00892657
  3:  -0.00452954   0.00837750  -0.00942757
  4:  -0.07990432   0.01367468   0.07293601
  5:  -0.01368715   0.00557705   0.03005527
  6:   0.00298117  -0.00084768   0.00798425
  7:  -0.01085071  -0.02388676  -0.01487759
  8:   0.00923107   0.05137250   0.04492129
  9:  -0.01437645   0.00138507  -0.00800077
 10:   0.04632710  -0.02440880   0.00293645
 11:   0.01415859   0.00780067  -0.02460725

-----------------------------------
NORM OF THE MP2 GRADIENT:  0.211485
-----------------------------------

Entering the calculation of the dispersion correction...

Checking the input atom types...

Done


-------------------------------------------------------------------------------
                          DFT DISPERSION CORRECTION                            
                                                                               
                                DFTD3 V2.1  Rev 6                               
                          USING Becke-Johnson damping                          
-------------------------------------------------------------------------------
The B2PLYP functional is recognized
Active option DFTDOPT                   ...         4   

molecular C6(AA) [au] = 4868.462756 


            DFT-D V3
 parameters
 s6 scaling factor         :     0.6400 
 a1 scaling factor         :     0.3065 
 s8 scaling factor         :     0.9147 
 a2 scaling factor         :     5.0570 
 ad hoc parameters k1-k3   :    16.0000     1.3333    -4.0000 

 Edisp/kcal,au: -7.372015447338  -0.011748053162 
 E6   /kcal   :  -3.380373064 
 E8   /kcal   :  -3.991642383 
 % E8         :  54.145876543 

-------------------------   ----------------
Dispersion correction           -0.011748053
-------------------------   ----------------


-------------------------   --------------------
FINAL SINGLE POINT ENERGY     -1669.521665509058
-------------------------   --------------------


                            ***************************************
                            *     ORCA property calculations      *
                            ***************************************


  WARNING: The energy has been calculated at the MP2 level but the densities
           used in the property calculations are still SCF densities
           MP2 response densities have not been calculated 
           use %mp2 Density relaxed end
           or  %mp2 Density unrelaxed end

                                    ---------------------
                                    Active property flags
                                    ---------------------
   (+) Dipole Moment


------------------------------------------------------------------------------
                       ORCA ELECTRIC PROPERTIES CALCULATION
------------------------------------------------------------------------------

Dipole Moment Calculation                       ... on
Quadrupole Moment Calculation                   ... off
Polarizability Calculation                      ... off
GBWName                                         ... PbMACl3_mp2_md_9.orca.gbw
Electron density file                           ... PbMACl3_mp2_md_9.orca.scfp.tmp

-------------
DIPOLE MOMENT
-------------
                                X             Y             Z
Electronic contribution:    -52.46896     -72.23792     -41.28907
Nuclear contribution   :     54.73915      78.10809      40.90417
                        -----------------------------------------
Total Dipole Moment    :      2.27019       5.87016      -0.38489
                        -----------------------------------------
Magnitude (a.u.)       :      6.30561
Magnitude (Debye)      :     16.02759


                         *** MP2 UNRELAXED DENSITY ***

------------------------------------------------------------------------------
                       ORCA ELECTRIC PROPERTIES CALCULATION
------------------------------------------------------------------------------

Dipole Moment Calculation                       ... on
Quadrupole Moment Calculation                   ... off
Polarizability Calculation                      ... off
GBWName                                         ... PbMACl3_mp2_md_9.orca.gbw
Electron density file                           ... PbMACl3_mp2_md_9.orca.pmp2ur

-------------
DIPOLE MOMENT
-------------
                                X             Y             Z
Electronic contribution:    -52.47001     -72.25684     -41.28407
Nuclear contribution   :     54.73915      78.10809      40.90417
                        -----------------------------------------
Total Dipole Moment    :      2.26914       5.85124      -0.37990
                        -----------------------------------------
Magnitude (a.u.)       :      6.28732
Magnitude (Debye)      :     15.98109


                           *** MP2 RELAXED DENSITY ***

------------------------------------------------------------------------------
                       ORCA ELECTRIC PROPERTIES CALCULATION
------------------------------------------------------------------------------

Dipole Moment Calculation                       ... on
Quadrupole Moment Calculation                   ... off
Polarizability Calculation                      ... off
GBWName                                         ... PbMACl3_mp2_md_9.orca.gbw
Electron density file                           ... PbMACl3_mp2_md_9.orca.pmp2re

-------------
DIPOLE MOMENT
-------------
                                X             Y             Z
Electronic contribution:    -52.50188     -72.35165     -41.30274
Nuclear contribution   :     54.73915      78.10809      40.90417
                        -----------------------------------------
Total Dipole Moment    :      2.23726       5.75644      -0.39857
                        -----------------------------------------
Magnitude (a.u.)       :      6.18877
Magnitude (Debye)      :     15.73059


Timings for individual modules:

Sum of individual times         ...      884.336 sec (=  14.739 min)
GTO integral calculation        ...        3.417 sec (=   0.057 min)   0.4 %
SCF iterations                  ...      375.279 sec (=   6.255 min)  42.4 %
MP2 module                      ...      505.640 sec (=   8.427 min)  57.2 %
                             ****ORCA TERMINATED NORMALLY****
TOTAL RUN TIME: 0 days 0 hours 14 minutes 46 seconds 140 msec
