
                                 *****************
                                 * O   R   C   A *
                                 *****************

           --- An Ab Initio, DFT and Semiempirical electronic structure package ---

                  #######################################################
                  #                        -***-                        #
                  #  Department of molecular theory and spectroscopy    #
                  #              Directorship: Frank Neese              #
                  # Max Planck Institute for Chemical Energy Conversion #
                  #                  D-45470 Muelheim/Ruhr              #
                  #                       Germany                       #
                  #                                                     #
                  #                  All rights reserved                #
                  #                        -***-                        #
                  #######################################################


                         Program Version 3.0.3 - RELEASE   -


 With contributions from (in alphabetic order):
   Ute Becker             : Parallelization
   Dmytro Bykov           : SCF Hessian
   Dmitry Ganyushin       : Spin-Orbit,Spin-Spin,Magnetic field MRCI
   Andreas Hansen         : Spin unrestricted coupled pair/coupled cluster methods
   Dimitrios Liakos       : Extrapolation schemes; parallel MDCI
   Robert Izsak           : Overlap fitted RIJCOSX, COSX-SCS-MP3
   Christian Kollmar      : KDIIS, OOCD, Brueckner-CCSD(T), CCSD density
   Simone Kossmann        : Meta GGA functionals, TD-DFT gradient, OOMP2, MP2 Hessian
   Taras Petrenko         : DFT Hessian,TD-DFT gradient, ASA and ECA modules, normal mode analysis, Resonance Raman, ABS, FL, XAS/XES, NRVS
   Christoph Reimann      : Effective Core Potentials
   Michael Roemelt        : Restricted open shell CIS
   Christoph Riplinger    : Improved optimizer, TS searches, QM/MM, DLPNO-CCSD
   Barbara Sandhoefer     : DKH picture change effects
   Igor Schapiro          : Molecular dynamics
   Kantharuban Sivalingam : CASSCF convergence, NEVPT2
   Boris Wezisla          : Elementary symmetry handling
   Frank Wennmohs         : Technical directorship


 We gratefully acknowledge several colleagues who have allowed us to
 interface, adapt or use parts of their codes:
   Stefan Grimme, W. Hujo, H. Kruse, T. Risthaus : VdW corrections, initial TS optimization,
                                                   DFT functionals, gCP
   Ed Valeev                                     : LibInt (2-el integral package), F12 methods
   Garnet Chan, S. Sharma, R. Olivares           : DMRG
   Ulf Ekstrom                                   : XCFun DFT Library
   Mihaly Kallay                                 : mrcc  (arbitrary order and MRCC methods)
   Andreas Klamt, Michael Diedenhofen            : otool_cosmo (COSMO solvation model)
   Frank Weinhold                                : gennbo (NPA and NBO analysis)
   Christopher J. Cramer and Donald G. Truhlar   : smd solvation model


 Your calculation uses the libint2 library for the computation of 2-el integrals
 For citations please refer to: http://libint.valeyev.net

 This ORCA versions uses:
   CBLAS   interface :  Fast vector & matrix operations
   LAPACKE interface :  Fast linear algebra routines
   SCALAPACK package :  Parallel linear algebra routines


Your calculation utilizes the basis: Ahlrichs-TZV
Cite in your paper:
H - Kr: A. Schaefer, H. Horn and R. Ahlrichs, J. Chem. Phys. 97, 2571 (1992).

The def2-TZV basis will be loaded
Cite in your paper:
 	F. Weigend, R. Ahlrichs, Phys. Chem. Chem. Phys. 2005, 7, 3297.

Your calculation utilizes the atom-pairwise dispersion correction
with the Becke-Johnson damping scheme (D3BJ)
Cite in your paper:
S.Grimme, S.Ehrlich, L.Goerigk, J Comput Chem, (2011), 32, 1456–1465 
S.Grimme, J.Antony, S.Ehrlich and H.Krieg, J.Chem.Phys., 132, (2010), 154104 
   

================================================================================
                                        WARNINGS
                       Please study these warnings very carefully!
================================================================================

WARNING: The RI method has been chosen with no auxiliary basis (AUX or GTOAUX in BASIS block)
        Standard TZV/J expansion basis used (GTOAUX=TZV_J)

Now building the actual basis set
cite the ECPs for Pb [SD(60,MDF)] as follows:
  B. Metz, H. Stoll, M. Dolg, J. Chem. Phys. 113, 2563 (2000).

ECP parameters for Pb [SD(60,MDF)] have been obtained from:
  pseudopotential library of the Stuttgart/Cologne group
  http://www.theochem.uni-stuttgart.de/pseudopotentials/

cite the ECP basis sets for Pb [DEF2-TZVP] as follows:
  F. Weigend, R. Ahlrichs; Phys. Chem. Chem. Phys. 7, 3297(2005).

ECP basis sets for Pb [DEF2-TZVP] have been obtained from:
  Turbomole basis set library
  ftp://ftp.chemie.uni-karlsruhe.de/pub/basen/



INFO   : the flag for use of LIBINT has been found!

================================================================================
                                       INPUT FILE
================================================================================
NAME = PbMACl3_mp2_md_13.orca
|  1> ! RIJCOSX RI-B2PLYP D3BJ def2-TZVP ECP{def2-TZVP} TIGHTSCF Grid5 FinalGrid6 SlowConv MORead
|  2> %method
|  3>  RunTyp Gradient
|  4>  end
|  5> %maxcore 1000
|  6> %moinp "previous.gbw"
|  7> *xyz 0 1
|  8> C -3.449170 0.518443 -0.485748 
|  9> N -2.927880 1.616260 -1.351820 
| 10> H -3.743300 2.063110 -1.773140 
| 11> H -2.410870 1.165080 -2.100950 
| 12> H -2.357470 2.279140 -0.861231 
| 13> H -4.111130 -0.194706 -1.028500 
| 14> H -3.924520 0.802977 0.459927 
| 15> H -2.608900 0.015295 -0.071594 
| 16> Pb -2.913900 -2.654000 -2.362630 
| 17> Cl -1.742880 -4.767790 -2.990980 
| 18> Cl -2.069420 -0.437636 -3.065360 
| 19> Cl -3.597260 -2.656700 0.045921 
| 20> *
| 21> 
| 22>                          ****END OF INPUT****
================================================================================

                     *******************************
                     * Energy+Gradient Calculation *
                     *******************************

---------------------------------
CARTESIAN COORDINATES (ANGSTROEM)
---------------------------------
  C     -3.449170    0.518443   -0.485748
  N     -2.927880    1.616260   -1.351820
  H     -3.743300    2.063110   -1.773140
  H     -2.410870    1.165080   -2.100950
  H     -2.357470    2.279140   -0.861231
  H     -4.111130   -0.194706   -1.028500
  H     -3.924520    0.802977    0.459927
  H     -2.608900    0.015295   -0.071594
  Pb    -2.913900   -2.654000   -2.362630
  Cl    -1.742880   -4.767790   -2.990980
  Cl    -2.069420   -0.437636   -3.065360
  Cl    -3.597260   -2.656700    0.045921

----------------------------
CARTESIAN COORDINATES (A.U.)
----------------------------
  NO LB      ZA    FRAG    MASS        X           Y           Z
   0 C     6.0000    0    12.011         -6.517986689337164          0.979715286048535         -0.917930690099980
   1 N     7.0000    0    14.007         -5.532891352985354          3.054288761211562         -2.554569582357427
   2 H     1.0000    0     1.008         -7.073811837107422          3.898712884154274         -3.350748997101128
   3 H     1.0000    0     1.008         -4.555884044486728          2.201682124108972         -3.970220121061854
   4 H     1.0000    0     1.008         -4.454972668935334          4.306950420865282         -1.627490728043133
   5 H     1.0000    0     1.008         -7.768909800947676         -0.367941016631271         -1.943583328738007
   6 H     1.0000    0     1.008         -7.416268007096630          1.517406621837685          0.869136071595999
   7 H     1.0000    0     1.008         -4.930106510787154          0.028903361218326         -0.135293052831958
   8 Pb   22.0000*   0   207.200  -5.506472981633135  -5.015333159427001  -4.464723655786367
   9 Cl   17.0000    0    35.453         -3.293565884288671         -9.009817364048404         -5.652133072035785
  10 Cl   17.0000    0    35.453         -3.910637056059317         -0.827012186344761         -5.792690901876848
  11 Cl   17.0000    0    35.453         -6.797836232509561         -5.020435419988589          0.086778113795798
* core charge reduced due to ECP

--------------------------------
INTERNAL COORDINATES (ANGSTROEM)
--------------------------------
 C      0   0   0   0.000000     0.000     0.000
 N      1   0   0   1.492322     0.000     0.000
 H      2   1   0   1.020831   106.410     0.000
 H      2   1   3   1.015903   106.201   245.951
 H      2   1   3   1.002724   113.646   123.130
 H      1   2   3   1.114160   113.309    54.846
 H      1   2   3   1.096001   117.469   285.978
 H      1   2   3   1.063360   107.343   177.601
 Pb     6   1   2   3.043253   119.807    90.428
 Cl     9   6   1   2.496842   168.228    55.291
 Cl     4   2   1   1.901414   147.114    17.491
 Cl     9   6   1   2.503619    58.113    86.638

---------------------------
INTERNAL COORDINATES (A.U.)
---------------------------
 C      0   0   0   0.000000     0.000     0.000
 N      1   0   0   2.820081     0.000     0.000
 H      2   1   0   1.929090   106.410     0.000
 H      2   1   3   1.919778   106.201   245.951
 H      2   1   3   1.894873   113.646   123.130
 H      1   2   3   2.105457   113.309    54.846
 H      1   2   3   2.071142   117.469   285.978
 H      1   2   3   2.009460   107.343   177.601
 Pb     6   1   2   5.750915   119.807    90.428
 Cl     9   6   1   4.718347   168.228    55.291
 Cl     4   2   1   3.593151   147.114    17.491
 Cl     9   6   1   4.731153    58.113    86.638

---------------------
BASIS SET INFORMATION
---------------------
There are 5 groups of distinct atoms

 Group   1 Type C   : 11s6p2d1f contracted to 5s3p2d1f pattern {62111/411/11/1}
 Group   2 Type N   : 11s6p2d1f contracted to 5s3p2d1f pattern {62111/411/11/1}
 Group   3 Type H   : 5s1p contracted to 3s1p pattern {311/1}
 Group   4 Type Pb  : 10s9p8d2f contracted to 6s5p3d2f pattern {421111/33111/611/11}
 Group   5 Type Cl  : 14s9p3d1f contracted to 5s5p2d1f pattern {73211/51111/21/1}

Atom   0C    basis set group =>   1
Atom   1N    basis set group =>   2
Atom   2H    basis set group =>   3
Atom   3H    basis set group =>   3
Atom   4H    basis set group =>   3
Atom   5H    basis set group =>   3
Atom   6H    basis set group =>   3
Atom   7H    basis set group =>   3
Atom   8Pb   basis set group =>   4
Atom   9Cl   basis set group =>   5
Atom  10Cl   basis set group =>   5
Atom  11Cl   basis set group =>   5
-------------------------------
AUXILIARY BASIS SET INFORMATION
-------------------------------
There are 5 groups of distinct atoms

 Group   1 Type C   : 12s5p4d2f1g contracted to 6s4p3d1f1g pattern {711111/2111/211/2/1}
 Group   2 Type N   : 12s5p4d2f1g contracted to 6s4p3d1f1g pattern {711111/2111/211/2/1}
 Group   3 Type H   : 5s2p1d contracted to 3s1p1d pattern {311/2/1}
 Group   4 Type Pb  : 31s12p8d6f3g contracted to 31s12p8d6f3g pattern {1111111111111111111111111111111/111111111111/11111111/111111/111}
 Group   5 Type Cl  : 14s5p5d2f1g contracted to 8s4p3d1f1g pattern {71111111/2111/311/2/1}

Atom   0C    basis set group =>   1
Atom   1N    basis set group =>   2
Atom   2H    basis set group =>   3
Atom   3H    basis set group =>   3
Atom   4H    basis set group =>   3
Atom   5H    basis set group =>   3
Atom   6H    basis set group =>   3
Atom   7H    basis set group =>   3
Atom   8Pb   basis set group =>   4
Atom   9Cl   basis set group =>   5
Atom  10Cl   basis set group =>   5
Atom  11Cl   basis set group =>   5

-------------------------
ECP PARAMETER INFORMATION
-------------------------

 Group 1, Type Pb ECP SD(60,MDF) (replacing 60 core electrons, lmax=5)

Atom   8Pb   ECP group =>   1


------------------------------------------------------------------------------
                           ORCA GTO INTEGRAL CALCULATION
                           -- RI-GTO INTEGRALS CHOSEN --
------------------------------------------------------------------------------

                         BASIS SET STATISTICS AND STARTUP INFO

Gaussian basis set:
 # of primitive gaussian shells          ...  186
 # of primitive gaussian functions       ...  420
 # of contracted shells                  ...  101
 # of contracted basis functions         ...  259
 Highest angular momentum                ...    3
 Maximum contraction depth               ...    7
Auxiliary gaussian basis set:
 # of primitive gaussian shells          ...  237
 # of primitive gaussian functions       ...  643
 # of contracted shells                  ...  171
 # of contracted aux-basis functions     ...  493
 Highest angular momentum                ...    4
 Maximum contraction depth               ...    7
Ratio of auxiliary to basis functions    ...  1.90
Integral package used                  ... LIBINT
 One Electron integrals                  
   ECP integrals                         ... done
 Ordering auxiliary basis shells         ... done
 Integral threshhold             Thresh  ...  2.500e-11
 Primitive cut-off               TCut    ...  2.500e-12
 Pre-screening matrix                    ... done
 Shell pair data                         ... 
 Ordering of the shell pairs             ... done (   0.001 sec) 4235 of 5151 pairs
 Determination of significant pairs      ... done (   0.000 sec)
 Creation of shell pair data             ... done (   0.001 sec)
 Storage of shell pair data              ... done (   0.001 sec)
 Shell pair data done in (   0.003 sec)
 Computing two index integrals           ... done
 Cholesky decomposition of the V-matrix  ... done


Timings:
 Total evaluation time                   ...   0.837 sec (  0.014 min)
 One electron matrix time                ...   0.388 sec (  0.006 min) = 46.4%
 Schwartz matrix evaluation time         ...   0.213 sec (  0.004 min) = 25.4%
 Two index repulsion integral time       ...   0.008 sec (  0.000 min) =  0.9%
 Cholesky decomposition of V             ...   0.189 sec (  0.003 min) = 22.6%
 Three index repulsion integral time     ...   0.000 sec (  0.000 min) =  0.0%

-------------------------------------------------------------------------------
                                 ORCA SCF
-------------------------------------------------------------------------------

------------
SCF SETTINGS
------------
Hamiltonian:
 Density Functional     Method          .... DFT(GTOs)
 Exchange Functional    Exchange        .... B88
   X-Alpha parameter    XAlpha          ....  0.666667
   Becke's b parameter  XBeta           ....  0.004200
 Correlation Functional Correlation     .... LYP
 LDA part of GGA corr.  LDAOpt          .... VWN-3
 Gradients option       PostSCFGGA      .... off
 Hybrid DFT is turned on
   Fraction HF Exchange ScalHFX         ....  0.530000
   Scaling of DF-GGA-X  ScalDFX         ....  0.470000
   Scaling of DF-GGA-C  ScalDFC         ....  0.730000
   Scaling of DF-LDA-C  ScalLDAC        ....  0.730000
   Perturbative correction              ....  0.270000
 RI-approximation to the Coulomb term is turned on
   Number of auxiliary basis functions  .... 493
   RIJ-COSX (HFX calculated with COS-X)).... on


General Settings:
 Integral files         IntName         .... PbMACl3_mp2_md_13.orca
 Hartree-Fock type      HFTyp           .... RHF
 Total Charge           Charge          ....    0
 Multiplicity           Mult            ....    1
 Number of Electrons    NEL             ....   92
 Basis Dimension        Dim             ....  259
 Nuclear Repulsion      ENuc            ....    580.4395145924 Eh

Convergence Acceleration:
 DIIS                   CNVDIIS         .... on
   Start iteration      DIISMaxIt       ....     0
   Startup error        DIISStart       ....  0.200000
   # of expansion vecs  DIISMaxEq       ....     5
   Bias factor          DIISBfac        ....   1.050
   Max. coefficient     DIISMaxC        ....  10.000
 Newton-Raphson         CNVNR           .... off
 SOSCF                  CNVSOSCF        .... on
   Start iteration      SOSCFMaxIt      ....   150
   Startup grad/error   SOSCFStart      ....  0.001000
 Level Shifting         CNVShift        .... on
   Level shift para.    LevelShift      ....    0.2500
   Turn off err/grad.   ShiftErr        ....    0.0000
 Zerner damping         CNVZerner       .... off
 Static damping         CNVDamp         .... on
   Fraction old density DampFac         ....    0.8500
   Max. Damping (<1)    DampMax         ....    0.9800
   Min. Damping (>=0)   DampMin         ....    0.0000
   Turn off err/grad.   DampErr         ....    0.0300
 Fernandez-Rico         CNVRico         .... off

SCF Procedure:
 Maximum # iterations   MaxIter         ....   125
 SCF integral mode      SCFMode         .... Direct
   Integral package                     .... LIBINT
 Reset frequeny         DirectResetFreq ....    20
 Integral Threshold     Thresh          ....  2.500e-11 Eh
 Primitive CutOff       TCut            ....  2.500e-12 Eh

Convergence Tolerance:
 Convergence Check Mode ConvCheckMode   .... Total+1el-Energy
 Energy Change          TolE            ....  1.000e-08 Eh
 1-El. energy change                    ....  1.000e-05 Eh
 Orbital Gradient       TolG            ....  1.000e-05
 Orbital Rotation angle TolX            ....  1.000e-05
 DIIS Error             TolErr          ....  5.000e-07


Diagonalization of the overlap matrix:
Smallest eigenvalue                        ... 8.631e-04
Time for diagonalization                   ...    0.461 sec
Threshold for overlap eigenvalues          ... 1.000e-08
Number of eigenvalues below threshold      ... 0
Time for construction of square roots      ...    0.008 sec
Total time needed                          ...    0.469 sec

---------------------
INITIAL GUESS: MOREAD
---------------------
Guess MOs are being read from file: previous.gbw
Input geometry compatible with but different from current geometry
Input basis set matches current basis set (good)
MOs were renormalized
MOs were reorthogonalized (Schmidt)
                      ------------------
                      INITIAL GUESS DONE (   0.1 sec)
                      ------------------
-------------------
DFT GRID GENERATION
-------------------

General Integration Accuracy     IntAcc      ...  5.010
Radial Grid Type                 RadialGrid  ... Gauss-Chebyshev
Angular Grid (max. acc.)         AngularGrid ... Lebedev-434
Angular grid pruning method      GridPruning ... 3 (G Style)
Weight generation scheme         WeightScheme... Becke
Basis function cutoff            BFCut       ...    1.0000e-11
Integration weight cutoff        WCut        ...    1.0000e-14
Grids for H and He will be reduced by one unit

# of grid points (after initial pruning)     ... 115882 (   0.0 sec)
# of grid points (after weights+screening)   ... 109000 (   0.3 sec)
nearest neighbour list constructed           ...    0.0 sec
Grid point re-assignment to atoms done       ...    0.0 sec
Grid point division into batches done        ...    1.0 sec
Reduced shell lists constructed in    2.4 sec

Total number of grid points                  ...   109000
Total number of batches                      ...     1711
Average number of points per batch           ...       63
Average number of grid points per atom       ...     9083
Average number of shells per batch           ...    52.61 (52.09%)
Average number of basis functions per batch  ...   138.54 (53.49%)
Average number of large shells per batch     ...    39.79 (75.63%)
Average number of large basis fcns per batch ...   102.93 (74.29%)
Maximum spatial batch extension              ...  40.98, 25.79, 34.93 au
Average spatial batch extension              ...   2.53,  2.27,  2.45 au

Time for grid setup =    2.751 sec

--------------------
COSX GRID GENERATION
--------------------

General Integration Accuracy     IntAcc      ...  3.340
Radial Grid Type                 RadialGrid  ... Gauss-Chebyshev
Angular Grid (max. acc.)         AngularGrid ... Lebedev-50
Angular grid pruning method      GridPruning ... 3 (G Style)
Weight generation scheme         WeightScheme... Becke
Basis function cutoff            BFCut       ...    1.0000e-11
Integration weight cutoff        WCut        ...    1.0000e-14
Grids for H and He will be reduced by one unit

# of grid points (after initial pruning)     ...   6578 (   0.0 sec)
# of grid points (after weights+screening)   ...   6276 (   0.0 sec)
nearest neighbour list constructed           ...    0.0 sec
Grid point re-assignment to atoms done       ...    0.0 sec
Grid point division into batches done        ...    0.0 sec
Reduced shell lists constructed in    0.1 sec

Total number of grid points                  ...     6276
Total number of batches                      ...      105
Average number of points per batch           ...       59
Average number of grid points per atom       ...      523
Average number of shells per batch           ...    63.59 (62.96%)
Average number of basis functions per batch  ...   169.90 (65.60%)
Average number of large shells per batch     ...    49.02 (77.08%)
Average number of large basis fcns per batch ...   128.83 (75.83%)
Maximum spatial batch extension              ...  29.27, 23.94, 33.80 au
Average spatial batch extension              ...   6.67,  5.67,  6.74 au

Overlap Fitting                  UseSFitting ... on
Constructing numerical overlap ... done (      0.1 sec)
Inverting numerical overlap    ... done (      0.0 sec)
Obtaining analytic overlap     ... done (      0.0 sec)
Final contraction and storage  ... done (      0.0 sec)


General Integration Accuracy     IntAcc      ...  3.670
Radial Grid Type                 RadialGrid  ... Gauss-Chebyshev
Angular Grid (max. acc.)         AngularGrid ... Lebedev-50
Angular grid pruning method      GridPruning ... 3 (G Style)
Weight generation scheme         WeightScheme... Becke
Basis function cutoff            BFCut       ...    1.0000e-11
Integration weight cutoff        WCut        ...    1.0000e-14
Grids for H and He will be reduced by one unit

# of grid points (after initial pruning)     ...   8124 (   0.0 sec)
# of grid points (after weights+screening)   ...   7732 (   0.0 sec)
nearest neighbour list constructed           ...    0.0 sec
Grid point re-assignment to atoms done       ...    0.0 sec
Grid point division into batches done        ...    0.0 sec
Reduced shell lists constructed in    0.1 sec

Total number of grid points                  ...     7732
Total number of batches                      ...      129
Average number of points per batch           ...       59
Average number of grid points per atom       ...      644
Average number of shells per batch           ...    62.78 (62.16%)
Average number of basis functions per batch  ...   167.36 (64.62%)
Average number of large shells per batch     ...    48.62 (77.45%)
Average number of large basis fcns per batch ...   127.19 (76.00%)
Maximum spatial batch extension              ...  37.97, 25.08, 35.56 au
Average spatial batch extension              ...   6.30,  5.31,  6.13 au

Overlap Fitting                  UseSFitting ... on
Constructing numerical overlap ... done (      0.1 sec)
Inverting numerical overlap    ... done (      0.0 sec)
Obtaining analytic overlap     ... done (      0.0 sec)
Final contraction and storage  ... done (      0.0 sec)


General Integration Accuracy     IntAcc      ...  4.010
Radial Grid Type                 RadialGrid  ... Gauss-Chebyshev
Angular Grid (max. acc.)         AngularGrid ... Lebedev-110
Angular grid pruning method      GridPruning ... 3 (G Style)
Weight generation scheme         WeightScheme... Becke
Basis function cutoff            BFCut       ...    1.0000e-11
Integration weight cutoff        WCut        ...    1.0000e-14
Grids for H and He will be reduced by one unit

# of grid points (after initial pruning)     ...  15170 (   0.0 sec)
# of grid points (after weights+screening)   ...  14482 (   0.0 sec)
nearest neighbour list constructed           ...    0.0 sec
Grid point re-assignment to atoms done       ...    0.0 sec
Grid point division into batches done        ...    0.0 sec
Reduced shell lists constructed in    0.2 sec

Total number of grid points                  ...    14482
Total number of batches                      ...      233
Average number of points per batch           ...       62
Average number of grid points per atom       ...     1207
Average number of shells per batch           ...    59.46 (58.87%)
Average number of basis functions per batch  ...   158.41 (61.16%)
Average number of large shells per batch     ...    45.52 (76.55%)
Average number of large basis fcns per batch ...   119.27 (75.29%)
Maximum spatial batch extension              ...  39.26, 24.04, 34.67 au
Average spatial batch extension              ...   5.56,  4.44,  4.97 au

Overlap Fitting                  UseSFitting ... on
Constructing numerical overlap ... done (      0.2 sec)
Inverting numerical overlap    ... done (      0.0 sec)
Obtaining analytic overlap     ... done (      0.0 sec)
Final contraction and storage  ... done (      0.0 sec)

Time for X-Grid setup             =    0.962 sec
--------------
SCF ITERATIONS
--------------
ITER       Energy         Delta-E        Max-DP      RMS-DP      [F,P]     Damp
               ***  Starting incremental Fock matrix formation  ***
  0  -1664.0109301100   0.000000000000 0.10705489  0.00183208  0.7342935 0.8500
  1  -1664.7115896769  -0.700659566873 0.10167361  0.00172855  0.6248071 0.8500
                               ***Turning on DIIS***
  2  -1665.3076149104  -0.596025233521 0.08421283  0.00150227  0.5313669 0.8500
  3  -1665.8128106769  -0.505195766493 0.06782596  0.00128748  0.4518661 0.8500
  4  -1666.2489098119  -0.436099135031 0.05577481  0.00112117  0.3841931 0.8500
  5  -1666.6243365912  -0.375426779300 0.04658540  0.00098139  0.3266073 0.8500
  6  -1666.9502703288  -0.325933737561 0.03969559  0.00085337  0.2776337 0.8500
  7  -1667.2342990537  -0.284028724895 0.03417382  0.00073677  0.2359988 0.8500
  8  -1667.4815759365  -0.247276882798 0.02954381  0.00063180  0.2006089 0.8500
  9  -1667.6953792462  -0.213803309748 0.02526543  0.00053945  0.1705264 0.8500
 10  -1667.8795245095  -0.184145263337 0.02142761  0.00046006  0.1449544 0.8500
 11  -1668.0378588697  -0.158334360152 0.01815723  0.00039238  0.1232166 0.8500
 12  -1668.1738389701  -0.135980100424 0.01542275  0.00033470  0.1047384 0.8500
 13  -1668.2904694143  -0.116630444194 0.01312773  0.00028536  0.0890308 0.8500
 14  -1668.3903598596  -0.099890445295 0.01117285  0.00024313  0.0756786 0.8500
 15  -1668.4758054351  -0.085445575528 0.00949815  0.00020709  0.0643286 0.8500
 16  -1668.5488237041  -0.073018268998 0.00806975  0.00017639  0.0546808 0.8500
 17  -1668.6111739450  -0.062350240910 0.00685768  0.00015025  0.0464798 0.8500
 18  -1668.6643798620  -0.053205916934 0.00583045  0.00012798  0.0395087 0.8500
 19  -1668.7097564060  -0.045376543989 0.00495805  0.00010902  0.0335830 0.8500
               *** Restarting incremental Fock matrix formation ***
                                   *** Resetting DIIS ***
 20  -1668.7512387278  -0.041482321785 0.02763501  0.00059173  0.0285458 0.0000
 21  -1668.9721056068  -0.220866879025 0.00540352  0.00007959  0.0105656 0.0000
 22  -1668.9723146419  -0.000209035099 0.00197761  0.00002949  0.0055156 0.0000
                      *** Initiating the SOSCF procedure ***
                           *** Shutting down DIIS ***
                      *** Re-Reading the Fockian *** 
                      *** Removing any level shift *** 
ITER      Energy       Delta-E        Grad      Rot      Max-DP    RMS-DP
 23  -1668.97236850  -0.0000538594  0.000260  0.000260  0.000447  0.000011
               *** Restarting incremental Fock matrix formation ***
 24  -1668.96960427   0.0027642286  0.000374  0.000442  0.003136  0.000035
 25  -1668.96960319   0.0000010801  0.000071  0.000170  0.000616  0.000008
 26  -1668.96960246   0.0000007290  0.000065  0.000035  0.000395  0.000005
 27  -1668.96960296  -0.0000004986  0.000011  0.000026  0.000052  0.000001
 28  -1668.96960301  -0.0000000506  0.000004  0.000010  0.000012  0.000000
                  ***Gradient check signals convergence***
              ***Rediagonalizing the Fockian in SOSCF/NRSCF***

               *****************************************************
               *                     SUCCESS                       *
               *           SCF CONVERGED AFTER  29 CYCLES          *
               *****************************************************

Old exchange energy                            =    -59.236190378 Eh
New exchange energy                            =    -59.239392306 Eh
Exchange energy change after final integration =     -0.003201928 Eh
Total energy after final integration           =  -1668.972804951 Eh
Final COS-X integration done in                =    23.509 sec

----------------
TOTAL SCF ENERGY
----------------

Total Energy       :        -1668.97280495 Eh          -45415.05888 eV

Components:
Nuclear Repulsion  :          580.43951459 Eh           15794.56217 eV
Electronic Energy  :        -2249.41231954 Eh          -61209.62105 eV

One Electron Energy:        -3532.48345286 Eh          -96123.76159 eV
Two Electron Energy:         1283.07113332 Eh           34914.14054 eV

Virial components:
Potential Energy   :        -3207.03675897 Eh          -87267.90683 eV
Kinetic Energy     :         1538.06395402 Eh           41852.84795 eV
Virial Ratio       :            2.08511275


DFT components:
N(Alpha)           :       46.000004619528 electrons
N(Beta)            :       46.000004619528 electrons
N(Total)           :       92.000009239055 electrons
E(X)               :      -52.607369040346 Eh       
E(C)               :       -2.610401703279 Eh       
E(XC)              :      -55.217770743625 Eh       

---------------
SCF CONVERGENCE
---------------

  Last Energy change         ...   -9.9656e-09  Tolerance :   1.0000e-08
  Last MAX-Density change    ...    3.0311e-14  Tolerance :   1.0000e-07
  Last RMS-Density change    ...    2.8554e-16  Tolerance :   5.0000e-09
  Last Orbital Gradient      ...    1.6848e-06  Tolerance :   1.0000e-05
  Last Orbital Rotation      ...    3.5165e-06  Tolerance :   1.0000e-05

             **** THE GBW FILE WAS UPDATED (PbMACl3_mp2_md_13.orca.gbw) ****
             **** DENSITY FILE WAS UPDATED (PbMACl3_mp2_md_13.orca.scfp.tmp) ****
             **** ENERGY FILE WAS UPDATED (PbMACl3_mp2_md_13.orca.en.tmp) ****
----------------
ORBITAL ENERGIES
----------------

  NO   OCC          E(Eh)            E(eV) 
   0   2.0000    -102.862259     -2799.0244 
   1   2.0000    -102.828489     -2798.1055 
   2   2.0000    -102.812797     -2797.6784 
   3   2.0000     -15.010602      -408.4592 
   4   2.0000     -10.713366      -291.5255 
   5   2.0000      -9.872719      -268.6503 
   6   2.0000      -9.836467      -267.6639 
   7   2.0000      -9.820075      -267.2178 
   8   2.0000      -7.509336      -204.3394 
   9   2.0000      -7.507916      -204.3008 
  10   2.0000      -7.507764      -204.2966 
  11   2.0000      -7.473350      -203.3602 
  12   2.0000      -7.471792      -203.3178 
  13   2.0000      -7.471586      -203.3122 
  14   2.0000      -7.457158      -202.9196 
  15   2.0000      -7.455298      -202.8690 
  16   2.0000      -7.455145      -202.8648 
  17   2.0000      -5.771744      -157.0572 
  18   2.0000      -3.544589       -96.4532 
  19   2.0000      -3.542010       -96.3830 
  20   2.0000      -3.540905       -96.3529 
  21   2.0000      -1.193999       -32.4904 
  22   2.0000      -0.953802       -25.9543 
  23   2.0000      -0.943166       -25.6648 
  24   2.0000      -0.940610       -25.5953 
  25   2.0000      -0.932671       -25.3793 
  26   2.0000      -0.932008       -25.3612 
  27   2.0000      -0.890499       -24.2317 
  28   2.0000      -0.876549       -23.8521 
  29   2.0000      -0.846800       -23.0426 
  30   2.0000      -0.826618       -22.4934 
  31   2.0000      -0.738133       -20.0856 
  32   2.0000      -0.720514       -19.6062 
  33   2.0000      -0.623140       -16.9565 
  34   2.0000      -0.549357       -14.9488 
  35   2.0000      -0.533219       -14.5096 
  36   2.0000      -0.509703       -13.8697 
  37   2.0000      -0.395849       -10.7716 
  38   2.0000      -0.379445       -10.3252 
  39   2.0000      -0.373893       -10.1742 
  40   2.0000      -0.352390        -9.5890 
  41   2.0000      -0.332209        -9.0399 
  42   2.0000      -0.328599        -8.9416 
  43   2.0000      -0.310430        -8.4472 
  44   2.0000      -0.307110        -8.3569 
  45   2.0000      -0.241833        -6.5806 
  46   0.0000      -0.014917        -0.4059 
  47   0.0000      -0.007852        -0.2137 
  48   0.0000       0.042932         1.1682 
  49   0.0000       0.051416         1.3991 
  50   0.0000       0.069908         1.9023 
  51   0.0000       0.083175         2.2633 
  52   0.0000       0.108224         2.9449 
  53   0.0000       0.134487         3.6596 
  54   0.0000       0.144487         3.9317 
  55   0.0000       0.149963         4.0807 
  56   0.0000       0.152826         4.1586 
  57   0.0000       0.168776         4.5926 
  58   0.0000       0.176145         4.7931 
  59   0.0000       0.213795         5.8177 
  60   0.0000       0.215763         5.8712 
  61   0.0000       0.238853         6.4995 
  62   0.0000       0.248706         6.7676 
  63   0.0000       0.258163         7.0250 
  64   0.0000       0.279228         7.5982 
  65   0.0000       0.287205         7.8152 
  66   0.0000       0.290296         7.8994 
  67   0.0000       0.315984         8.5984 
  68   0.0000       0.339486         9.2379 
  69   0.0000       0.377346        10.2681 
  70   0.0000       0.392310        10.6753 
  71   0.0000       0.415813        11.3148 
  72   0.0000       0.433809        11.8046 
  73   0.0000       0.438224        11.9247 
  74   0.0000       0.444415        12.0931 
  75   0.0000       0.450478        12.2581 
  76   0.0000       0.464941        12.6517 
  77   0.0000       0.470425        12.8009 
  78   0.0000       0.477588        12.9958 
  79   0.0000       0.481384        13.0991 
  80   0.0000       0.487991        13.2789 
  81   0.0000       0.490681        13.3521 
  82   0.0000       0.500115        13.6088 
  83   0.0000       0.511556        13.9201 
  84   0.0000       0.517941        14.0939 
  85   0.0000       0.539481        14.6800 
  86   0.0000       0.543943        14.8014 
  87   0.0000       0.552917        15.0456 
  88   0.0000       0.565395        15.3852 
  89   0.0000       0.570249        15.5173 
  90   0.0000       0.589105        16.0304 
  91   0.0000       0.595227        16.1969 
  92   0.0000       0.609620        16.5886 
  93   0.0000       0.621488        16.9116 
  94   0.0000       0.627594        17.0777 
  95   0.0000       0.644616        17.5409 
  96   0.0000       0.649922        17.6853 
  97   0.0000       0.660600        17.9758 
  98   0.0000       0.669246        18.2111 
  99   0.0000       0.694228        18.8909 
 100   0.0000       0.732473        19.9316 
 101   0.0000       0.752220        20.4690 
 102   0.0000       0.763549        20.7772 
 103   0.0000       0.785422        21.3724 
 104   0.0000       0.792756        21.5720 
 105   0.0000       0.837392        22.7866 
 106   0.0000       0.850391        23.1403 
 107   0.0000       0.870306        23.6822 
 108   0.0000       0.893912        24.3246 
 109   0.0000       0.899719        24.4826 
 110   0.0000       0.924446        25.1555 
 111   0.0000       0.933881        25.4122 
 112   0.0000       0.945889        25.7390 
 113   0.0000       0.950651        25.8685 
 114   0.0000       0.960655        26.1407 
 115   0.0000       0.995205        27.0809 
 116   0.0000       1.020451        27.7679 
 117   0.0000       1.068173        29.0665 
 118   0.0000       1.085227        29.5305 
 119   0.0000       1.091324        29.6964 
 120   0.0000       1.116427        30.3795 
 121   0.0000       1.133975        30.8570 
 122   0.0000       1.174617        31.9630 
 123   0.0000       1.185462        32.2581 
 124   0.0000       1.218320        33.1522 
 125   0.0000       1.241757        33.7899 
 126   0.0000       1.269329        34.5402 
 127   0.0000       1.321416        35.9576 
 128   0.0000       1.342457        36.5301 
 129   0.0000       1.370740        37.2997 
 130   0.0000       1.412834        38.4452 
 131   0.0000       1.539149        41.8824 
 132   0.0000       1.552411        42.2433 
 133   0.0000       1.566410        42.6242 
 134   0.0000       1.611605        43.8540 
 135   0.0000       1.663693        45.2714 
 136   0.0000       1.746149        47.5151 
 137   0.0000       1.764010        48.0012 
 138   0.0000       1.773180        48.2507 
 139   0.0000       1.840403        50.0799 
 140   0.0000       1.883583        51.2549 
 141   0.0000       1.889377        51.4126 
 142   0.0000       1.926704        52.4283 
 143   0.0000       1.933786        52.6210 
 144   0.0000       1.955975        53.2248 
 145   0.0000       1.959990        53.3340 
 146   0.0000       1.968006        53.5522 
 147   0.0000       1.975996        53.7696 
 148   0.0000       1.989686        54.1421 
 149   0.0000       1.998625        54.3854 
 150   0.0000       2.000547        54.4377 
 151   0.0000       2.017485        54.8986 
 152   0.0000       2.022906        55.0461 
 153   0.0000       2.038986        55.4836 
 154   0.0000       2.057428        55.9855 
 155   0.0000       2.074261        56.4435 
 156   0.0000       2.102877        57.2222 
 157   0.0000       2.114732        57.5448 
 158   0.0000       2.141234        58.2659 
 159   0.0000       2.148371        58.4602 
 160   0.0000       2.151554        58.5468 
 161   0.0000       2.154566        58.6287 
 162   0.0000       2.169484        59.0347 
 163   0.0000       2.174551        59.1725 
 164   0.0000       2.186043        59.4853 
 165   0.0000       2.192065        59.6491 
 166   0.0000       2.212418        60.2029 
 167   0.0000       2.225301        60.5535 
 168   0.0000       2.248563        61.1865 
 169   0.0000       2.255190        61.3669 
 170   0.0000       2.265665        61.6519 
 171   0.0000       2.271126        61.8005 
 172   0.0000       2.277390        61.9709 
 173   0.0000       2.283551        62.1386 
 174   0.0000       2.294663        62.4409 
 175   0.0000       2.295597        62.4664 
 176   0.0000       2.303184        62.6728 
 177   0.0000       2.325587        63.2824 
 178   0.0000       2.330427        63.4141 
 179   0.0000       2.347434        63.8769 
 180   0.0000       2.357448        64.1494 
 181   0.0000       2.376124        64.6576 
 182   0.0000       2.384922        64.8970 
 183   0.0000       2.388506        64.9946 
 184   0.0000       2.413464        65.6737 
 185   0.0000       2.423729        65.9530 
 186   0.0000       2.434746        66.2528 
 187   0.0000       2.435647        66.2773 
 188   0.0000       2.444963        66.5308 
 189   0.0000       2.450771        66.6889 
 190   0.0000       2.459153        66.9170 
 191   0.0000       2.473780        67.3150 
 192   0.0000       2.483929        67.5911 
 193   0.0000       2.490427        67.7680 
 194   0.0000       2.503001        68.1101 
 195   0.0000       2.511167        68.3323 
 196   0.0000       2.546397        69.2910 
 197   0.0000       2.571480        69.9735 
 198   0.0000       2.595775        70.6346 
 199   0.0000       2.608823        70.9897 
 200   0.0000       2.644612        71.9635 
 201   0.0000       2.674144        72.7672 
 202   0.0000       2.689251        73.1782 
 203   0.0000       2.722493        74.0828 
 204   0.0000       2.750773        74.8523 
 205   0.0000       2.758095        75.0516 
 206   0.0000       2.778107        75.5961 
 207   0.0000       2.831551        77.0504 
 208   0.0000       2.858547        77.7850 
 209   0.0000       2.883186        78.4555 
 210   0.0000       2.910084        79.1874 
 211   0.0000       2.963415        80.6386 
 212   0.0000       3.072044        83.5946 
 213   0.0000       3.099891        84.3523 
 214   0.0000       3.147998        85.6614 
 215   0.0000       3.176602        86.4397 
 216   0.0000       3.273008        89.0631 
 217   0.0000       3.339608        90.8753 
 218   0.0000       3.523482        95.8788 
 219   0.0000       3.553476        96.6950 
 220   0.0000       3.597259        97.8864 
 221   0.0000       3.677080       100.0584 
 222   0.0000       3.780395       102.8698 
 223   0.0000       3.892103       105.9095 
 224   0.0000       3.933106       107.0253 
 225   0.0000       4.161987       113.2534 
 226   0.0000       4.297660       116.9453 
 227   0.0000       4.387134       119.3800 
 228   0.0000       4.490762       122.1998 
 229   0.0000       4.796850       130.5289 
 230   0.0000       4.855444       132.1234 
 231   0.0000       4.877380       132.7203 
 232   0.0000       4.901884       133.3871 
 233   0.0000       5.027173       136.7963 
 234   0.0000       5.067737       137.9001 
 235   0.0000       5.143552       139.9632 
 236   0.0000       5.261408       143.1702 
 237   0.0000       5.437620       147.9652 
 238   0.0000       5.524664       150.3338 
 239   0.0000       5.903636       160.6461 
 240   0.0000      11.049591       300.6747 
 241   0.0000      11.081967       301.5556 
 242   0.0000      11.096363       301.9474 
 243   0.0000      11.101434       302.0854 
 244   0.0000      11.115447       302.4667 
 245   0.0000      11.149935       303.4052 
 246   0.0000      11.217669       305.2483 
 247   0.0000      11.229195       305.5619 
 248   0.0000      11.272096       306.7293 
 249   0.0000      22.680898       617.1786 
 250   0.0000      25.228239       686.4953 
 251   0.0000      25.248901       687.0575 
 252   0.0000      25.432409       692.0510 
 253   0.0000      32.272129       878.1693 
 254   0.0000      35.629828       969.5369 
 255   0.0000      35.768709       973.3161 
 256   0.0000      35.853939       975.6353 
 257   0.0000      35.912182       977.2202 
 258   0.0000     123.658306      3364.9136 

                    ********************************
                    * MULLIKEN POPULATION ANALYSIS *
                    ********************************

-----------------------
MULLIKEN ATOMIC CHARGES
-----------------------
   0 C :   -0.330540
   1 N :   -0.254911
   2 H :    0.290724
   3 H :    0.279414
   4 H :    0.287014
   5 H :    0.190630
   6 H :    0.170820
   7 H :    0.182385
   8 Pb:    0.851760
   9 Cl:   -0.534026
  10 Cl:   -0.568177
  11 Cl:   -0.565093
Sum of atomic charges:   -0.0000000

--------------------------------
MULLIKEN REDUCED ORBITAL CHARGES
--------------------------------
  0 C s       :     3.262001  s :     3.262001
      pz      :     0.994225  p :     2.991443
      px      :     1.109878
      py      :     0.887341
      dz2     :     0.010306  d :     0.070904
      dxz     :     0.018829
      dyz     :     0.017267
      dx2y2   :     0.009341
      dxy     :     0.015162
      f0      :     0.000465  f :     0.006191
      f+1     :     0.000418
      f-1     :     0.001023
      f+2     :     0.001025
      f-2     :     0.001933
      f+3     :     0.000566
      f-3     :     0.000761
  1 N s       :     3.403208  s :     3.403208
      pz      :     1.290640  p :     3.804496
      px      :     1.260851
      py      :     1.253005
      dz2     :     0.006630  d :     0.044852
      dxz     :     0.010904
      dyz     :     0.010359
      dx2y2   :     0.004812
      dxy     :     0.012147
      f0      :     0.000155  f :     0.002356
      f+1     :     0.000103
      f-1     :     0.000312
      f+2     :     0.000319
      f-2     :     0.001047
      f+3     :     0.000138
      f-3     :     0.000282
  2 H s       :     0.675431  s :     0.675431
      pz      :     0.009125  p :     0.033846
      px      :     0.015937
      py      :     0.008784
  3 H s       :     0.670822  s :     0.670822
      pz      :     0.020335  p :     0.049764
      px      :     0.011565
      py      :     0.017864
  4 H s       :     0.677811  s :     0.677811
      pz      :     0.010063  p :     0.035175
      px      :     0.011618
      py      :     0.013493
  5 H s       :     0.786637  s :     0.786637
      pz      :     0.005039  p :     0.022733
      px      :     0.007855
      py      :     0.009839
  6 H s       :     0.806670  s :     0.806670
      pz      :     0.012410  p :     0.022510
      px      :     0.006728
      py      :     0.003372
  7 H s       :     0.793660  s :     0.793660
      pz      :     0.006568  p :     0.023955
      px      :     0.009939
      py      :     0.007448
  8 Pbs       :     3.940038  s :     3.940038
      pz      :     2.334801  p :     6.976745
      px      :     2.329928
      py      :     2.312015
      dz2     :     2.030629  d :    10.159983
      dxz     :     2.030589
      dyz     :     2.035666
      dx2y2   :     2.035958
      dxy     :     2.027141
      f0      :     0.015409  f :     0.071474
      f+1     :     0.008690
      f-1     :     0.011847
      f+2     :     0.006753
      f-2     :     0.006574
      f+3     :     0.012797
      f-3     :     0.009404
  9 Cls       :     5.953311  s :     5.953311
      pz      :     3.902194  p :    11.561502
      px      :     3.901654
      py      :     3.757653
      dz2     :     0.002535  d :     0.018277
      dxz     :     0.001089
      dyz     :     0.003658
      dx2y2   :     0.004485
      dxy     :     0.006509
      f0      :     0.000098  f :     0.000936
      f+1     :     0.000042
      f-1     :     0.000137
      f+2     :     0.000088
      f-2     :     0.000137
      f+3     :     0.000280
      f-3     :     0.000154
 10 Cls       :     5.951089  s :     5.951089
      pz      :     3.909083  p :    11.592316
      px      :     3.933167
      py      :     3.750066
      dz2     :     0.003819  d :     0.023468
      dxz     :     0.001849
      dyz     :     0.005785
      dx2y2   :     0.006308
      dxy     :     0.005707
      f0      :     0.000150  f :     0.001304
      f+1     :     0.000042
      f-1     :     0.000149
      f+2     :     0.000272
      f-2     :     0.000132
      f+3     :     0.000306
      f-3     :     0.000252
 11 Cls       :     5.951849  s :     5.951849
      pz      :     3.778723  p :    11.594007
      px      :     3.888937
      py      :     3.926347
      dz2     :     0.009912  d :     0.018365
      dxz     :     0.004631
      dyz     :     0.002631
      dx2y2   :     0.000705
      dxy     :     0.000487
      f0      :     0.000363  f :     0.000872
      f+1     :     0.000269
      f-1     :     0.000134
      f+2     :     0.000052
      f-2     :     0.000036
      f+3     :     0.000009
      f-3     :     0.000010


                     *******************************
                     * LOEWDIN POPULATION ANALYSIS *
                     *******************************

----------------------
LOEWDIN ATOMIC CHARGES
----------------------
   0 C :   -0.319592
   1 N :    0.127906
   2 H :    0.204039
   3 H :    0.115690
   4 H :    0.190351
   5 H :    0.135118
   6 H :    0.127332
   7 H :    0.122672
   8 Pb:   -0.111417
   9 Cl:   -0.213144
  10 Cl:   -0.157571
  11 Cl:   -0.221383

-------------------------------
LOEWDIN REDUCED ORBITAL CHARGES
-------------------------------
  0 C s       :     2.856235  s :     2.856235
      pz      :     1.028657  p :     3.129365
      px      :     1.119636
      py      :     0.981072
      dz2     :     0.046308  d :     0.298129
      dxz     :     0.067793
      dyz     :     0.078137
      dx2y2   :     0.037335
      dxy     :     0.068555
      f0      :     0.004542  f :     0.035863
      f+1     :     0.003121
      f-1     :     0.006948
      f+2     :     0.005340
      f-2     :     0.006316
      f+3     :     0.004202
      f-3     :     0.005394
  1 N s       :     2.978490  s :     2.978490
      pz      :     1.257000  p :     3.721667
      px      :     1.223783
      py      :     1.240884
      dz2     :     0.022379  d :     0.161492
      dxz     :     0.036658
      dyz     :     0.040043
      dx2y2   :     0.017626
      dxy     :     0.044786
      f0      :     0.001670  f :     0.010445
      f+1     :     0.000750
      f-1     :     0.001788
      f+2     :     0.001356
      f-2     :     0.001797
      f+3     :     0.001084
      f-3     :     0.002001
  2 H s       :     0.694631  s :     0.694631
      pz      :     0.026991  p :     0.101330
      px      :     0.048421
      py      :     0.025918
  3 H s       :     0.719840  s :     0.719840
      pz      :     0.068388  p :     0.164470
      px      :     0.037497
      py      :     0.058585
  4 H s       :     0.702737  s :     0.702737
      pz      :     0.033224  p :     0.106912
      px      :     0.034499
      py      :     0.039189
  5 H s       :     0.800995  s :     0.800995
      pz      :     0.015697  p :     0.063886
      px      :     0.022196
      py      :     0.025993
  6 H s       :     0.808612  s :     0.808612
      pz      :     0.033320  p :     0.064056
      px      :     0.019447
      py      :     0.011289
  7 H s       :     0.806933  s :     0.806933
      pz      :     0.019049  p :     0.070395
      px      :     0.030843
      py      :     0.020503
  8 Pbs       :     3.706056  s :     3.706056
      pz      :     2.504421  p :     7.461755
      px      :     2.439316
      py      :     2.518017
      dz2     :     2.165175  d :    10.717377
      dxz     :     2.110193
      dyz     :     2.145968
      dx2y2   :     2.156715
      dxy     :     2.139327
      f0      :     0.052824  f :     0.226229
      f+1     :     0.028423
      f-1     :     0.031705
      f+2     :     0.022553
      f-2     :     0.019561
      f+3     :     0.046298
      f-3     :     0.024867
  9 Cls       :     5.748819  s :     5.748819
      pz      :     3.850651  p :    11.426149
      px      :     3.850489
      py      :     3.725009
      dz2     :     0.006149  d :     0.036041
      dxz     :     0.001661
      dyz     :     0.004785
      dx2y2   :     0.006533
      dxy     :     0.016914
      f0      :     0.000205  f :     0.002135
      f+1     :     0.000111
      f-1     :     0.000325
      f+2     :     0.000121
      f-2     :     0.000285
      f+3     :     0.000959
      f-3     :     0.000128
 10 Cls       :     5.703740  s :     5.703740
      pz      :     3.832176  p :    11.393341
      px      :     3.875140
      py      :     3.686025
      dz2     :     0.009131  d :     0.057102
      dxz     :     0.002308
      dyz     :     0.012041
      dx2y2   :     0.016058
      dxy     :     0.017565
      f0      :     0.000441  f :     0.003389
      f+1     :     0.000104
      f-1     :     0.000380
      f+2     :     0.000630
      f-2     :     0.000396
      f+3     :     0.001040
      f-3     :     0.000397
 11 Cls       :     5.745040  s :     5.745040
      pz      :     3.742659  p :    11.436700
      px      :     3.837577
      py      :     3.856464
      dz2     :     0.027433  d :     0.037504
      dxz     :     0.006208
      dyz     :     0.002507
      dx2y2   :     0.000814
      dxy     :     0.000542
      f0      :     0.001278  f :     0.002140
      f+1     :     0.000578
      f-1     :     0.000164
      f+2     :     0.000059
      f-2     :     0.000035
      f+3     :     0.000012
      f-3     :     0.000014


                      *****************************
                      * MAYER POPULATION ANALYSIS *
                      *****************************

  NA   - Mulliken gross atomic population
  ZA   - Total nuclear charge
  QA   - Mulliken gross atomic charge
  VA   - Mayer's total valence
  BVA  - Mayer's bonded valence
  FA   - Mayer's free valence

  ATOM       NA         ZA         QA         VA         BVA        FA
  0 C      6.3305     6.0000    -0.3305     3.7785     3.7785    -0.0000
  1 N      7.2549     7.0000    -0.2549     3.3657     3.3657     0.0000
  2 H      0.7093     1.0000     0.2907     0.9119     0.9119     0.0000
  3 H      0.7206     1.0000     0.2794     1.0218     1.0218     0.0000
  4 H      0.7130     1.0000     0.2870     0.9164     0.9164    -0.0000
  5 H      0.8094     1.0000     0.1906     0.9763     0.9763    -0.0000
  6 H      0.8292     1.0000     0.1708     0.9681     0.9681    -0.0000
  7 H      0.8176     1.0000     0.1824     0.9860     0.9860    -0.0000
  8 Pb    21.1482    22.0000     0.8518     1.9083     1.9083     0.0000
  9 Cl    17.5340    17.0000    -0.5340     0.7963     0.7963    -0.0000
 10 Cl    17.5682    17.0000    -0.5682     0.7313     0.7313    -0.0000
 11 Cl    17.5651    17.0000    -0.5651     0.7392     0.7392    -0.0000

  Mayer bond orders larger than 0.1
B(  0-C ,  1-N ) :   0.8623 B(  0-C ,  5-H ) :   0.9507 B(  0-C ,  6-H ) :   0.9670 
B(  0-C ,  7-H ) :   0.9637 B(  1-N ,  2-H ) :   0.9002 B(  1-N ,  3-H ) :   0.7659 
B(  1-N ,  4-H ) :   0.8969 B(  3-H , 10-Cl) :   0.2398 B(  8-Pb,  9-Cl) :   0.7729 
B(  8-Pb, 10-Cl) :   0.4647 B(  8-Pb, 11-Cl) :   0.6588 

-------
TIMINGS
-------

Total SCF time: 0 days 0 hours 6 min 57 sec 

Total time                  ....     417.617 sec
Sum of individual times     ....     393.205 sec  ( 94.2%)

Fock matrix formation       ....     388.069 sec  ( 92.9%)
  Coulomb formation         ....     320.644 sec  ( 82.6% of F)
  Split-RI-J                ....      23.019 sec  (  5.9% of F)
  Chain of spheres X        ....     321.054 sec  ( 82.7% of F)
  COS-X 1 center corr.      ....       0.000 sec  (  0.0% of F)
  XC integration            ....      67.447 sec  ( 17.4% of F)
    Basis function eval.    ....      20.344 sec  ( 30.2% of XC)
    Density eval.           ....      18.776 sec  ( 27.8% of XC)
    XC-Functional eval.     ....       4.150 sec  (  6.2% of XC)
    XC-Potential eval.      ....      22.655 sec  ( 33.6% of XC)
Diagonalization             ....       0.794 sec  (  0.2%)
Density matrix formation    ....       0.061 sec  (  0.0%)
Population analysis         ....       0.066 sec  (  0.0%)
Initial guess               ....       0.136 sec  (  0.0%)
Orbital Transformation      ....       0.000 sec  (  0.0%)
Orbital Orthonormalization  ....       0.133 sec  (  0.0%)
DIIS solution               ....       0.252 sec  (  0.1%)
SOSCF solution              ....       0.115 sec  (  0.0%)
Grid generation             ....       3.713 sec  (  0.9%)

------------------------------------------------------------------------------
                              ORCA MP2 CALCULATION
------------------------------------------------------------------------------


----------------------
RI-MP2 ENERGY+GRADIENT
----------------------
Dimension of the basis                    ...  259
Memory devoted to MP2                     ... 1000 MB   
Data format for buffers                   ... DOUBLE
Compression type for matrix containers    ... UNCOMPRESSED
Overall scaling of the MP2 energy         ...   2.700e-01 Eh
Calculating two index integrals           ... done (    0.010 sec)
Cholesky decomposition of the V-matrix    ... done
Cholesky decomposition of V**-1           ... done (    0.039 sec)

-----------------
RI-TRANSFORMATION (AUX index driven)
-----------------

Dimension of the orbital-basis         ... 259
Dimension of the aux-basis             ... 493
Transformation of internal MOs         ...    0-  45
Transformation of internal/external MOs...    0-  45 to   46- 258
Number Format for Storage              ... Double (8 Byte)
Integral mode                          ... Direct

First Phase: integral generation and transformation of MO indices
  Aux angular momentum 0               ... done (    0.410 sec)
  Aux angular momentum 1               ... done (    0.345 sec)
  Aux angular momentum 2               ... done (    0.410 sec)
  Aux angular momentum 3               ... done (    0.244 sec)
  Aux angular momentum 4               ... done (    0.218 sec)
Closing buffer VIJ ( 0.00 GB; CompressionRatio= 1.95)
Closing buffer VIA ( 0.04 GB; CompressionRatio= 1.00)
  Phase 1 completed in     1.725 sec
Second Phase: sorting and transformation of aux index

IJ-Transformation
Memory available                       ... 990 MB 
Max. # MO pairs treated in a batch     ... 46    
# of internal orbitals                 ... 46
# batches for internal orbitals        ... 1
Closing buffer IJV ( 0.00 GB; CompressionRatio= 1.00)
(ij|v) transformation done in     0.116 sec

IA-Transformation
Memory available                       ... 990 MB 
Max. # MO pairs treated in a batch     ... 46    
# of internal orbitals                 ... 46
# batches for internal orbitals        ... 1
Closing buffer IAV ( 0.04 GB; CompressionRatio= 1.00)
(ia|v) transformation done in     0.484 sec

  Phase 2 completed in     0.618 sec
RI-Integral transformation completed in     2.344 sec
Opening buffers                              ... done

Starting loop over batches of integrals:

Operator 0  - window                       ... (  0- 45)x( 46-258)
Operator 0  - Memory available             ...  1000 MB
Operator 0  - Memory needed per MO         ...   1.6 MB
Operator 0  - Number of orbitals per batch ... 46
Operator 0  - Number of batches            ... 1

OPERATOR  0   PASS   0:  MOs     0 ...   45
  Reading integrals       ... ok
  Internal MO   2
  Internal MO   5
  Internal MO   8
  Internal MO  11
  Internal MO  14
  Internal MO  17
  Internal MO  20
  Internal MO  23
  Internal MO  26
  Internal MO  29
  Internal MO  32
  Internal MO  35
  Internal MO  38
  Internal MO  41
  Internal MO  44
Closing buffer GIPV ( 0.04 GB; CompressionRatio= 1.00)
Time spent in pair loops =    54.079 sec

-----------------------------------------------
 RI-MP2 CORRELATION ENERGY:     -0.580046863 Eh
-----------------------------------------------


---------------------
MP2 DENSITY FORMATION
---------------------

Completing the external part of the density      ... done
Storing the unrelaxed density                    ... done

Calculating the xc-kernel                        ... done
Calculating G(D)                                 ... done
Completing the Lagrangian                        ... done
Solving the Z-vector equations                   ... 

------------------------------------------------------------------------------
                           ORCA CP-SCF CALCULATION
------------------------------------------------------------------------------

Input orbitals are from        ... PbMACl3_mp2_md_13.orca.gbw
Input Perturbation             ... PbMACl3_mp2_md_13.orca.pin.tmp
Wavefunction output            ... PbMACl3_mp2_md_13.orca.pout.tmp
Perturbation mode              ... Real perturbation
Solver                         ... DIIS
   MaxDIIS                     ... 20
   Levelshift                  ...    3.000e-01 Eh
Max. number of iterations      ... 128
Convergence tolerance          ... 1.000e-08
Integral handling              ... Direct
COSX GridX                     ... 1
Number of perturbations        ... 1
Number of operators            ... 1
Orbital ranges used for CP-SCF:
 Operator 0:  Orbitals   0... 45  to  46...258
DFT calculation                         ... on
Exchange functional (SCF)               ... B88
Exchange functional (CP-SCF)            ... B88
   X-Alpha parameter    XAlpha (SCF)    ...  0.666667
   X-Alpha parameter    XAlpha (CP-SCF) ...  0.666667
   Becke's b parameter  XBeta (SCF)     ...  0.004200
   Becke's b parameter  XBeta (CP-SCF)  ...  0.004200
Correlation functional (SCF)            ... LYP
Correlation functional (CP-SCF)         ... LYP
 LDA part of GGA corr.  LDAOpt (SCF)    ... VWN-3
 LDA part of GGA corr.  LDAOpt (CP-SCF) ... VWN-3
Hybrid DFT                              ... on
   Exchange mixing (SCF)                ...  0.530
   Exchange mixing (CP-SCF)             ...  0.530
   GGA exch. scaling(SCF)               ...  0.470
   GGA exch. scaling (CP-SCF)           ...  0.470
   GGA corr. scaling (SCF)              ...  0.730
   GGA corr. scaling (CP-SCF)           ...  0.730
The RIJCOSX approximation is active
Variables per vector in CP-SCF ... 9798
Number of vectors sought       ... 1
Calculating the xc-kernel      ... done

Solving the CP-SCF equations by a DIIS algorithm

-----------------
CP-SCF ITERATIONS
-----------------
  Iteration   0: MaxR=  0.084149890
  Iteration   1: MaxR=  0.036749110
  Iteration   2: MaxR=  0.011982961
  Iteration   3: MaxR=  0.005500189
  Iteration   4: MaxR=  0.003150341
  Iteration   5: MaxR=  0.001404370
  Iteration   6: MaxR=  0.000580489
  Iteration   7: MaxR=  0.000180273
  Iteration   8: MaxR=  0.000072771
  Iteration   9: MaxR=  0.000026041
  Iteration  10: MaxR=  0.000011812
  Iteration  11: MaxR=  0.000004547
  Iteration  12: MaxR=  0.000001940
  Iteration  13: MaxR=  0.000000652
  Iteration  14: MaxR=  0.000000238
  Iteration  15: MaxR=  0.000000082
  Iteration  16: MaxR=  0.000000025
  Iteration  17: MaxR=  0.000000010
                              *** THE CP-SCF HAS CONVERGED *** 
done
Finalizing the relaxed density                   ... done
Transforming P to the AO basis                   ... done
Storing the relaxed density                      ... done

------------------------------------
ENERGY WEIGHTED DENSITY FINALIZATION
------------------------------------

Gathering the parts of the W-matrix              ... done
Forming the Z-density                            ... done
Transforming Z to the AO basis                   ... done
Calculating G(Z)                                 ... done
Finalizing the W-matrix                          ... done
Transforming W to the AO basis and storing       ... done
Entering the RIJONX and RIJCOSX sections
Starting the three-index derivative integrals:
Operator 0  - Memory available             ...  1000 MB
Operator 0  - Memory needed per MO         ...   1.0 MB
Operator 0  - Number of orbitals per batch ... 46
Operator 0  - Number of batches            ... 1

OPERATOR  0   PASS   0:  MOs     0 ...   45

----------------------------------
MP2 DERIVATIVE INTEGRAL GENERATION
----------------------------------


Input Correlated Electron Density   ... PbMACl3_mp2_md_13.orca.pmp2re
Input Energy Weighted Density       ... PbMACl3_mp2_md_13.orca.wmp2.tmp
Input SCF Electron Density          ... PbMACl3_mp2_md_13.orca.scfp.tmp

One-Electron Terms    ...
  ECP gradient                                           ... One-Electron Terms done

-----------------------------------------------------------
MP2 COSX Grid Generation
-----------------------------------------------------------

General Integration Accuracy     IntAcc      ...  4.340
Radial Grid Type                 RadialGrid  ... Gauss-Chebyshev
Angular Grid (max. acc.)         AngularGrid ... Lebedev-302
Angular grid pruning method      GridPruning ... 3 (G Style)
Weight generation scheme         WeightScheme... Becke
Basis function cutoff            BFCut       ...    1.0000e-11
Integration weight cutoff        WCut        ...    1.0000e-14
Grids for H and He will be reduced by one unit

# of grid points (after initial pruning)     ...  57718 (   0.0 sec)
# of grid points (after weights+screening)   ...  54509 (   0.1 sec)
nearest neighbour list constructed           ...    0.0 sec
Grid point re-assignment to atoms done       ...    0.0 sec
Grid point division into batches done        ...    0.2 sec
Reduced shell lists constructed in    0.9 sec

Total number of grid points                  ...    54509
Total number of batches                      ...      858
Average number of points per batch           ...       63
Average number of grid points per atom       ...     4542
Average number of shells per batch           ...    54.30 (53.77%)
Average number of basis functions per batch  ...   143.59 (55.44%)
Average number of large shells per batch     ...    41.10 (75.69%)
Average number of large basis fcns per batch ...   106.90 (74.45%)
Maximum spatial batch extension              ...  41.89, 26.46, 36.77 au
Average spatial batch extension              ...   3.25,  2.85,  3.21 au

Overlap Fitting                  UseSFitting ... on
Two electron COSX terms .... 
Integration Timings:
Total Time                  =    98.1 sec
Basis fcn evaluation        =     0.3 sec
Density evaluation          =     1.1 sec
Integral evaluation         =    94.5 sec
K(P) evaluation             =     0.9 sec
                          .... COSX two electron terms done
COSX two-electron contribution to the gradient
     0:    -0.022073     0.085831    -0.086742
     1:     0.016308    -0.071837     0.041455
     2:    -0.176597     0.086163    -0.087295
     3:     0.087730    -0.062857    -0.125574
     4:     0.126417     0.144051     0.104933
     5:    -0.101763    -0.116964    -0.075585
     6:    -0.062922     0.020619     0.155527
     7:     0.130379    -0.077120     0.078348
     8:    -0.013692     0.037830    -0.020968
     9:     0.031882    -0.069444    -0.023714
    10:     0.008539     0.024856    -0.021722
    11:    -0.024509    -0.000871     0.061398
Exchange-correlation gradient    ... done
Dispersion correction            ... 
Entering the calculation of the dispersion correction...

Checking the input atom types...

Done
done

                *********************************************
                * UNRELAXED MP2 DENSITY POPULATION ANALYSIS *
                *********************************************

------------------------------------------------------------------------------
                           ORCA POPULATION ANALYSIS
------------------------------------------------------------------------------
Input electron density              ... PbMACl3_mp2_md_13.orca.pmp2ur
BaseName (.gbw .S,...)              ... PbMACl3_mp2_md_13.orca

                    ********************************
                    * MULLIKEN POPULATION ANALYSIS *
                    ********************************

-----------------------
MULLIKEN ATOMIC CHARGES
-----------------------
   0 C :   -0.335797
   1 N :   -0.253973
   2 H :    0.290824
   3 H :    0.278310
   4 H :    0.287238
   5 H :    0.191267
   6 H :    0.171783
   7 H :    0.183232
   8 Pb:    0.835814
   9 Cl:   -0.527023
  10 Cl:   -0.562983
  11 Cl:   -0.558692
Sum of atomic charges:   -0.0000000

--------------------------------
MULLIKEN REDUCED ORBITAL CHARGES
--------------------------------
  0 C s       :     3.261060  s :     3.261060
      pz      :     0.992999  p :     2.987323
      px      :     1.107441
      py      :     0.886882
      dz2     :     0.012390  d :     0.080079
      dxz     :     0.020712
      dyz     :     0.018779
      dx2y2   :     0.011356
      dxy     :     0.016842
      f0      :     0.000633  f :     0.007335
      f+1     :     0.000600
      f-1     :     0.001188
      f+2     :     0.001190
      f-2     :     0.002073
      f+3     :     0.000729
      f-3     :     0.000921
  1 N s       :     3.401166  s :     3.401166
      pz      :     1.286954  p :     3.794109
      px      :     1.257817
      py      :     1.249338
      dz2     :     0.008812  d :     0.055303
      dxz     :     0.012934
      dyz     :     0.012430
      dx2y2   :     0.006964
      dxy     :     0.014164
      f0      :     0.000300  f :     0.003394
      f+1     :     0.000252
      f-1     :     0.000464
      f+2     :     0.000472
      f-2     :     0.001190
      f+3     :     0.000287
      f-3     :     0.000429
  2 H s       :     0.674705  s :     0.674705
      pz      :     0.009360  p :     0.034471
      px      :     0.016087
      py      :     0.009024
  3 H s       :     0.671316  s :     0.671316
      pz      :     0.020489  p :     0.050374
      px      :     0.011776
      py      :     0.018109
  4 H s       :     0.676972  s :     0.676972
      pz      :     0.010285  p :     0.035790
      px      :     0.011810
      py      :     0.013694
  5 H s       :     0.785016  s :     0.785016
      pz      :     0.005408  p :     0.023717
      px      :     0.008168
      py      :     0.010142
  6 H s       :     0.804711  s :     0.804711
      pz      :     0.012691  p :     0.023506
      px      :     0.007055
      py      :     0.003760
  7 H s       :     0.791790  s :     0.791790
      pz      :     0.006911  p :     0.024978
      px      :     0.010273
      py      :     0.007794
  8 Pbs       :     3.919401  s :     3.919401
      pz      :     2.344204  p :     7.005412
      px      :     2.340101
      py      :     2.321108
      dz2     :     2.025117  d :    10.131787
      dxz     :     2.024801
      dyz     :     2.030184
      dx2y2   :     2.030137
      dxy     :     2.021549
      f0      :     0.020464  f :     0.107586
      f+1     :     0.013830
      f-1     :     0.017109
      f+2     :     0.011928
      f-2     :     0.011763
      f+3     :     0.017820
      f-3     :     0.014672
  9 Cls       :     5.948625  s :     5.948625
      pz      :     3.887813  p :    11.517999
      px      :     3.887100
      py      :     3.743086
      dz2     :     0.010180  d :     0.056769
      dxz     :     0.008760
      dyz     :     0.011380
      dx2y2   :     0.012248
      dxy     :     0.014203
      f0      :     0.000475  f :     0.003630
      f+1     :     0.000416
      f-1     :     0.000522
      f+2     :     0.000472
      f-2     :     0.000522
      f+3     :     0.000670
      f-3     :     0.000553
 10 Cls       :     5.946615  s :     5.946615
      pz      :     3.894269  p :    11.548452
      px      :     3.918552
      py      :     3.735632
      dz2     :     0.011800  d :     0.063798
      dxz     :     0.009747
      dyz     :     0.013939
      dx2y2   :     0.014513
      dxy     :     0.013798
      f0      :     0.000546  f :     0.004118
      f+1     :     0.000427
      f-1     :     0.000561
      f+2     :     0.000677
      f-2     :     0.000536
      f+3     :     0.000710
      f-3     :     0.000661
 11 Cls       :     5.947274  s :     5.947274
      pz      :     3.764155  p :    11.550324
      px      :     3.874431
      py      :     3.911738
      dz2     :     0.017705  d :     0.057497
      dxz     :     0.012486
      dyz     :     0.010604
      dx2y2   :     0.008445
      dxy     :     0.008256
      f0      :     0.000766  f :     0.003598
      f+1     :     0.000668
      f-1     :     0.000541
      f+2     :     0.000440
      f-2     :     0.000424
      f+3     :     0.000379
      f-3     :     0.000380


                     *******************************
                     * LOEWDIN POPULATION ANALYSIS *
                     *******************************

----------------------
LOEWDIN ATOMIC CHARGES
----------------------
   0 C :   -0.323209
   1 N :    0.127391
   2 H :    0.204089
   3 H :    0.115459
   4 H :    0.190514
   5 H :    0.135724
   6 H :    0.128032
   7 H :    0.123288
   8 Pb:   -0.122692
   9 Cl:   -0.207686
  10 Cl:   -0.154284
  11 Cl:   -0.216626

-------------------------------
LOEWDIN REDUCED ORBITAL CHARGES
-------------------------------
  0 C s       :     2.855710  s :     2.855710
      pz      :     1.026331  p :     3.122127
      px      :     1.116611
      py      :     0.979184
      dz2     :     0.048244  d :     0.307714
      dxz     :     0.069765
      dyz     :     0.079965
      dx2y2   :     0.039269
      dxy     :     0.070470
      f0      :     0.004805  f :     0.037658
      f+1     :     0.003373
      f-1     :     0.007172
      f+2     :     0.005589
      f-2     :     0.006676
      f+3     :     0.004431
      f-3     :     0.005613
  1 N s       :     2.977893  s :     2.977893
      pz      :     1.253159  p :     3.710576
      px      :     1.220488
      py      :     1.236929
      dz2     :     0.024360  d :     0.172381
      dxz     :     0.038875
      dyz     :     0.042481
      dx2y2   :     0.019665
      dxy     :     0.047000
      f0      :     0.001848  f :     0.011760
      f+1     :     0.000922
      f-1     :     0.001968
      f+2     :     0.001537
      f-2     :     0.002046
      f+3     :     0.001261
      f-3     :     0.002177
  2 H s       :     0.693216  s :     0.693216
      pz      :     0.027370  p :     0.102694
      px      :     0.048973
      py      :     0.026351
  3 H s       :     0.718997  s :     0.718997
      pz      :     0.068782  p :     0.165544
      px      :     0.037906
      py      :     0.058856
  4 H s       :     0.701244  s :     0.701244
      pz      :     0.033616  p :     0.108242
      px      :     0.034917
      py      :     0.039709
  5 H s       :     0.798554  s :     0.798554
      pz      :     0.016282  p :     0.065722
      px      :     0.022789
      py      :     0.026651
  6 H s       :     0.806083  s :     0.806083
      pz      :     0.034150  p :     0.065885
      px      :     0.019948
      py      :     0.011787
  7 H s       :     0.804434  s :     0.804434
      pz      :     0.019579  p :     0.072278
      px      :     0.031617
      py      :     0.021083
  8 Pbs       :     3.688372  s :     3.688372
      pz      :     2.512366  p :     7.486269
      px      :     2.448504
      py      :     2.525398
      dz2     :     2.159120  d :    10.686177
      dxz     :     2.103791
      dyz     :     2.139896
      dx2y2   :     2.150004
      dxy     :     2.133366
      f0      :     0.057662  f :     0.261874
      f+1     :     0.033499
      f-1     :     0.036968
      f+2     :     0.027648
      f-2     :     0.024797
      f+3     :     0.051170
      f-3     :     0.030129
  9 Cls       :     5.744359  s :     5.744359
      pz      :     3.836592  p :    11.383900
      px      :     3.836308
      py      :     3.711001
      dz2     :     0.013794  d :     0.074537
      dxz     :     0.009327
      dyz     :     0.012504
      dx2y2   :     0.014296
      dxy     :     0.024616
      f0      :     0.000589  f :     0.004890
      f+1     :     0.000487
      f-1     :     0.000717
      f+2     :     0.000510
      f-2     :     0.000680
      f+3     :     0.001370
      f-3     :     0.000536
 10 Cls       :     5.699522  s :     5.699522
      pz      :     3.817954  p :    11.351326
      px      :     3.860928
      py      :     3.672443
      dz2     :     0.017096  d :     0.097150
      dxz     :     0.010232
      dyz     :     0.020127
      dx2y2   :     0.024160
      dxy     :     0.025535
      f0      :     0.000846  f :     0.006287
      f+1     :     0.000492
      f-1     :     0.000803
      f+2     :     0.001049
      f-2     :     0.000808
      f+3     :     0.001463
      f-3     :     0.000825
 11 Cls       :     5.740674  s :     5.740674
      pz      :     3.728753  p :    11.394372
      px      :     3.823415
      py      :     3.842204
      dz2     :     0.035249  d :     0.076653
      dxz     :     0.014068
      dyz     :     0.010416
      dx2y2   :     0.008588
      dxy     :     0.008331
      f0      :     0.001705  f :     0.004927
      f+1     :     0.000999
      f-1     :     0.000580
      f+2     :     0.000450
      f-2     :     0.000425
      f+3     :     0.000383
      f-3     :     0.000386


                      *****************************
                      * MAYER POPULATION ANALYSIS *
                      *****************************

  NA   - Mulliken gross atomic population
  ZA   - Total nuclear charge
  QA   - Mulliken gross atomic charge
  VA   - Mayer's total valence
  BVA  - Mayer's bonded valence
  FA   - Mayer's free valence

  ATOM       NA         ZA         QA         VA         BVA        FA
  0 C      6.3358     6.0000    -0.3358     3.8301     3.7093     0.1207
  1 N      7.2540     7.0000    -0.2540     3.4359     3.3013     0.1346
  2 H      0.7092     1.0000     0.2908     0.9137     0.8960     0.0177
  3 H      0.7217     1.0000     0.2783     1.0239     1.0037     0.0201
  4 H      0.7128     1.0000     0.2872     0.9181     0.9011     0.0169
  5 H      0.8087     1.0000     0.1913     0.9788     0.9593     0.0196
  6 H      0.8282     1.0000     0.1718     0.9706     0.9517     0.0189
  7 H      0.8168     1.0000     0.1832     0.9885     0.9700     0.0185
  8 Pb    21.1642    22.0000     0.8358     2.2227     1.8506     0.3721
  9 Cl    17.5270    17.0000    -0.5270     1.0337     0.7707     0.2631
 10 Cl    17.5630    17.0000    -0.5630     0.9708     0.7106     0.2602
 11 Cl    17.5587    17.0000    -0.5587     0.9789     0.7164     0.2625

  Mayer bond orders larger than 0.1
B(  0-C ,  1-N ) :   0.8409 B(  0-C ,  5-H ) :   0.9347 B(  0-C ,  6-H ) :   0.9514 
B(  0-C ,  7-H ) :   0.9487 B(  1-N ,  2-H ) :   0.8850 B(  1-N ,  3-H ) :   0.7535 
B(  1-N ,  4-H ) :   0.8825 B(  3-H , 10-Cl) :   0.2353 B(  8-Pb,  9-Cl) :   0.7489 
B(  8-Pb, 10-Cl) :   0.4513 B(  8-Pb, 11-Cl) :   0.6389 


                *******************************************
                * RELAXED MP2 DENSITY POPULATION ANALYSIS *
                *******************************************

------------------------------------------------------------------------------
                           ORCA POPULATION ANALYSIS
------------------------------------------------------------------------------
Input electron density              ... PbMACl3_mp2_md_13.orca.pmp2re
BaseName (.gbw .S,...)              ... PbMACl3_mp2_md_13.orca

                    ********************************
                    * MULLIKEN POPULATION ANALYSIS *
                    ********************************

-----------------------
MULLIKEN ATOMIC CHARGES
-----------------------
   0 C :   -0.354541
   1 N :   -0.253473
   2 H :    0.291272
   3 H :    0.269963
   4 H :    0.287462
   5 H :    0.193236
   6 H :    0.174980
   7 H :    0.187272
   8 Pb:    0.779681
   9 Cl:   -0.502630
  10 Cl:   -0.538575
  11 Cl:   -0.534646
Sum of atomic charges:   -0.0000000

--------------------------------
MULLIKEN REDUCED ORBITAL CHARGES
--------------------------------
  0 C s       :     3.264684  s :     3.264684
      pz      :     0.999901  p :     3.006842
      px      :     1.112702
      py      :     0.894239
      dz2     :     0.012044  d :     0.075839
      dxz     :     0.019274
      dyz     :     0.017504
      dx2y2   :     0.011241
      dxy     :     0.015776
      f0      :     0.000613  f :     0.007176
      f+1     :     0.000592
      f-1     :     0.001169
      f+2     :     0.001164
      f-2     :     0.002023
      f+3     :     0.000716
      f-3     :     0.000898
  1 N s       :     3.402713  s :     3.402713
      pz      :     1.285964  p :     3.793452
      px      :     1.258518
      py      :     1.248970
      dz2     :     0.008951  d :     0.053970
      dxz     :     0.012510
      dyz     :     0.011881
      dx2y2   :     0.006930
      dxy     :     0.013697
      f0      :     0.000295  f :     0.003339
      f+1     :     0.000251
      f-1     :     0.000464
      f+2     :     0.000465
      f-2     :     0.001155
      f+3     :     0.000282
      f-3     :     0.000427
  2 H s       :     0.674682  s :     0.674682
      pz      :     0.009315  p :     0.034046
      px      :     0.015730
      py      :     0.009001
  3 H s       :     0.680137  s :     0.680137
      pz      :     0.020184  p :     0.049900
      px      :     0.011702
      py      :     0.018014
  4 H s       :     0.677189  s :     0.677189
      pz      :     0.010231  p :     0.035349
      px      :     0.011647
      py      :     0.013471
  5 H s       :     0.783407  s :     0.783407
      pz      :     0.005406  p :     0.023357
      px      :     0.008001
      py      :     0.009950
  6 H s       :     0.801888  s :     0.801888
      pz      :     0.012254  p :     0.023132
      px      :     0.007036
      py      :     0.003842
  7 H s       :     0.788175  s :     0.788175
      pz      :     0.006827  p :     0.024553
      px      :     0.009996
      py      :     0.007730
  8 Pbs       :     3.930502  s :     3.930502
      pz      :     2.360762  p :     7.053047
      px      :     2.349717
      py      :     2.342568
      dz2     :     2.023377  d :    10.131150
      dxz     :     2.025036
      dyz     :     2.032041
      dx2y2   :     2.030213
      dxy     :     2.020483
      f0      :     0.019945  f :     0.105620
      f+1     :     0.013551
      f-1     :     0.016897
      f+2     :     0.011826
      f-2     :     0.011607
      f+3     :     0.017305
      f-3     :     0.014490
  9 Cls       :     5.949492  s :     5.949492
      pz      :     3.880374  p :    11.492862
      px      :     3.877772
      py      :     3.734716
      dz2     :     0.010204  d :     0.056637
      dxz     :     0.008763
      dyz     :     0.011261
      dx2y2   :     0.012120
      dxy     :     0.014289
      f0      :     0.000476  f :     0.003639
      f+1     :     0.000416
      f-1     :     0.000524
      f+2     :     0.000472
      f-2     :     0.000524
      f+3     :     0.000668
      f-3     :     0.000559
 10 Cls       :     5.946769  s :     5.946769
      pz      :     3.887374  p :    11.523132
      px      :     3.912179
      py      :     3.723579
      dz2     :     0.011943  d :     0.064532
      dxz     :     0.009771
      dyz     :     0.014036
      dx2y2   :     0.014797
      dxy     :     0.013985
      f0      :     0.000550  f :     0.004143
      f+1     :     0.000428
      f-1     :     0.000564
      f+2     :     0.000684
      f-2     :     0.000539
      f+3     :     0.000710
      f-3     :     0.000667
 11 Cls       :     5.947974  s :     5.947974
      pz      :     3.755536  p :    11.525575
      px      :     3.865613
      py      :     3.904426
      dz2     :     0.017788  d :     0.057491
      dxz     :     0.012332
      dyz     :     0.010653
      dx2y2   :     0.008452
      dxy     :     0.008268
      f0      :     0.000765  f :     0.003606
      f+1     :     0.000668
      f-1     :     0.000547
      f+2     :     0.000441
      f-2     :     0.000425
      f+3     :     0.000380
      f-3     :     0.000381


                     *******************************
                     * LOEWDIN POPULATION ANALYSIS *
                     *******************************

----------------------
LOEWDIN ATOMIC CHARGES
----------------------
   0 C :   -0.333508
   1 N :    0.123696
   2 H :    0.204850
   3 H :    0.113089
   4 H :    0.191204
   5 H :    0.137393
   6 H :    0.129819
   7 H :    0.125007
   8 Pb:   -0.153978
   9 Cl:   -0.191921
  10 Cl:   -0.143079
  11 Cl:   -0.202574

-------------------------------
LOEWDIN REDUCED ORBITAL CHARGES
-------------------------------
  0 C s       :     2.857667  s :     2.857667
      pz      :     1.030421  p :     3.135148
      px      :     1.120578
      py      :     0.984148
      dz2     :     0.048043  d :     0.303305
      dxz     :     0.068398
      dyz     :     0.078590
      dx2y2   :     0.039043
      dxy     :     0.069231
      f0      :     0.004772  f :     0.037388
      f+1     :     0.003350
      f-1     :     0.007150
      f+2     :     0.005535
      f-2     :     0.006596
      f+3     :     0.004398
      f-3     :     0.005588
  1 N s       :     2.979265  s :     2.979265
      pz      :     1.253741  p :     3.712942
      px      :     1.222319
      py      :     1.236882
      dz2     :     0.024651  d :     0.172276
      dxz     :     0.038662
      dyz     :     0.042423
      dx2y2   :     0.019742
      dxy     :     0.046797
      f0      :     0.001860  f :     0.011820
      f+1     :     0.000925
      f-1     :     0.001986
      f+2     :     0.001544
      f-2     :     0.002051
      f+3     :     0.001268
      f-3     :     0.002187
  2 H s       :     0.692720  s :     0.692720
      pz      :     0.027335  p :     0.102430
      px      :     0.048697
      py      :     0.026399
  3 H s       :     0.721336  s :     0.721336
      pz      :     0.068775  p :     0.165576
      px      :     0.037999
      py      :     0.058801
  4 H s       :     0.700795  s :     0.700795
      pz      :     0.033648  p :     0.108001
      px      :     0.034761
      py      :     0.039592
  5 H s       :     0.796747  s :     0.796747
      pz      :     0.016431  p :     0.065860
      px      :     0.022748
      py      :     0.026681
  6 H s       :     0.804185  s :     0.804185
      pz      :     0.033908  p :     0.065995
      px      :     0.020058
      py      :     0.012029
  7 H s       :     0.802556  s :     0.802556
      pz      :     0.019612  p :     0.072436
      px      :     0.031592
      py      :     0.021231
  8 Pbs       :     3.699892  s :     3.699892
      pz      :     2.522825  p :     7.515680
      px      :     2.453695
      py      :     2.539160
      dz2     :     2.156146  d :    10.679468
      dxz     :     2.102842
      dyz     :     2.140322
      dx2y2   :     2.148752
      dxy     :     2.131405
      f0      :     0.057163  f :     0.258938
      f+1     :     0.033053
      f-1     :     0.036585
      f+2     :     0.027342
      f-2     :     0.024461
      f+3     :     0.050681
      f-3     :     0.029655
  9 Cls       :     5.747452  s :     5.747452
      pz      :     3.830618  p :    11.364104
      px      :     3.828493
      py      :     3.704993
      dz2     :     0.013926  d :     0.075396
      dxz     :     0.009396
      dyz     :     0.012618
      dx2y2   :     0.014465
      dxy     :     0.024991
      f0      :     0.000599  f :     0.004968
      f+1     :     0.000489
      f-1     :     0.000727
      f+2     :     0.000517
      f-2     :     0.000695
      f+3     :     0.001397
      f-3     :     0.000545
 10 Cls       :     5.702639  s :     5.702639
      pz      :     3.813245  p :    11.335235
      px      :     3.855953
      py      :     3.666037
      dz2     :     0.017324  d :     0.098822
      dxz     :     0.010304
      dyz     :     0.020561
      dx2y2   :     0.024914
      dxy     :     0.025719
      f0      :     0.000862  f :     0.006383
      f+1     :     0.000494
      f-1     :     0.000811
      f+2     :     0.001072
      f-2     :     0.000822
      f+3     :     0.001477
      f-3     :     0.000846
 11 Cls       :     5.743750  s :     5.743750
      pz      :     3.723169  p :    11.376208
      px      :     3.816197
      py      :     3.836842
      dz2     :     0.035824  d :     0.077613
      dxz     :     0.014251
      dyz     :     0.010574
      dx2y2   :     0.008614
      dxy     :     0.008351
      f0      :     0.001730  f :     0.005002
      f+1     :     0.001029
      f-1     :     0.000594
      f+2     :     0.000453
      f-2     :     0.000427
      f+3     :     0.000383
      f-3     :     0.000387


                      *****************************
                      * MAYER POPULATION ANALYSIS *
                      *****************************

  NA   - Mulliken gross atomic population
  ZA   - Total nuclear charge
  QA   - Mulliken gross atomic charge
  VA   - Mayer's total valence
  BVA  - Mayer's bonded valence
  FA   - Mayer's free valence

  ATOM       NA         ZA         QA         VA         BVA        FA
  0 C      6.3545     6.0000    -0.3545     3.8279     3.7074     0.1204
  1 N      7.2535     7.0000    -0.2535     3.4374     3.3030     0.1344
  2 H      0.7087     1.0000     0.2913     0.9133     0.8957     0.0176
  3 H      0.7300     1.0000     0.2700     1.0326     1.0126     0.0199
  4 H      0.7125     1.0000     0.2875     0.9180     0.9011     0.0169
  5 H      0.8068     1.0000     0.1932     0.9819     0.9625     0.0194
  6 H      0.8250     1.0000     0.1750     0.9690     0.9501     0.0188
  7 H      0.8127     1.0000     0.1873     0.9895     0.9711     0.0184
  8 Pb    21.2203    22.0000     0.7797     2.3125     1.9465     0.3660
  9 Cl    17.5026    17.0000    -0.5026     1.0776     0.8164     0.2612
 10 Cl    17.5386    17.0000    -0.5386     1.0179     0.7590     0.2589
 11 Cl    17.5346    17.0000    -0.5346     1.0229     0.7620     0.2608

  Mayer bond orders larger than 0.1
B(  0-C ,  1-N ) :   0.8484 B(  0-C ,  5-H ) :   0.9308 B(  0-C ,  6-H ) :   0.9474 
B(  0-C ,  7-H ) :   0.9448 B(  1-N ,  2-H ) :   0.8835 B(  1-N ,  3-H ) :   0.7469 
B(  1-N ,  4-H ) :   0.8807 B(  3-H , 10-Cl) :   0.2490 B(  8-Pb,  9-Cl) :   0.7879 
B(  8-Pb, 10-Cl) :   0.4732 B(  8-Pb, 11-Cl) :   0.6701 


-------
TIMINGS
-------

Total time                :  512.878 sec
Integral trafo            :    2.353 sec (  0.5%)
I/O of integrals          :    0.120 sec (  0.0%)
K(i,j) Operators          :    8.558 sec (  1.7%)
T(i,j) pair energies      :    1.375 sec (  0.3%)
V-calculation             :    0.010 sec (  0.0%)
V**(-1/2)                 :    0.039 sec (  0.0%)
Gamma(ia|P)               :    8.240 sec (  1.6%)
Gamma-Trafo               :    1.112 sec (  0.2%)
D(virtual)                :    3.644 sec (  0.7%)
D(internal)               :    4.850 sec (  0.9%)
W(virtual)                :    7.285 sec (  1.4%)
W(internal)               :   13.239 sec (  2.6%)
L(virtual)                :    5.042 sec (  1.0%)
L(internal)               :    0.233 sec (  0.0%)
G(D)                      :   14.286 sec (  2.8%)
G(Z)                      :   14.461 sec (  2.8%)
Z-Vector Solution         :  310.066 sec ( 60.5%)
Z-Vector Solution         :  310.066 sec ( 60.5%)
3-Index Derivative 
+ Separable RIJ part      :    4.249 sec (  0.8%)
2-Index Derivative 
+ Separable RIJ part      :    0.034 sec (  0.0%)
Separable Gradient (COSX) :  111.103 sec ( 21.7%)


---------------------------------------
MP2 TOTAL ENERGY:    -1669.552851814 Eh
---------------------------------------

The final MP2 gradient
  0:   0.00822232   0.01594190  -0.01998196
  1:   0.04621791  -0.00641580  -0.01994700
  2:  -0.00692873  -0.00826309   0.00061199
  3:  -0.01487255   0.01536304   0.01868057
  4:  -0.00445711  -0.00900440  -0.00683554
  5:  -0.01557168  -0.01802309  -0.00583250
  6:   0.00841854  -0.01761469   0.01351315
  7:  -0.01479394   0.01634295   0.00761930
  8:   0.03754804   0.03916074   0.01490844
  9:  -0.01389779   0.01080362  -0.00016101
 10:  -0.03005935  -0.03781409   0.02144814
 11:  -0.00006320  -0.00020030  -0.02404715

-----------------------------------
NORM OF THE MP2 GRADIENT:  0.113680
-----------------------------------

Entering the calculation of the dispersion correction...

Checking the input atom types...

Done


-------------------------------------------------------------------------------
                          DFT DISPERSION CORRECTION                            
                                                                               
                                DFTD3 V2.1  Rev 6                               
                          USING Becke-Johnson damping                          
-------------------------------------------------------------------------------
The B2PLYP functional is recognized
Active option DFTDOPT                   ...         4   

molecular C6(AA) [au] = 4868.684296 


            DFT-D V3
 parameters
 s6 scaling factor         :     0.6400 
 a1 scaling factor         :     0.3065 
 s8 scaling factor         :     0.9147 
 a2 scaling factor         :     5.0570 
 ad hoc parameters k1-k3   :    16.0000     1.3333    -4.0000 

 Edisp/kcal,au: -8.095840635926  -0.012901541900 
 E6   /kcal   :  -3.684450905 
 E8   /kcal   :  -4.411389731 
 % E8         :  54.489582112 

-------------------------   ----------------
Dispersion correction           -0.012901542
-------------------------   ----------------


-------------------------   --------------------
FINAL SINGLE POINT ENERGY     -1669.565753355426
-------------------------   --------------------


                            ***************************************
                            *     ORCA property calculations      *
                            ***************************************


  WARNING: The energy has been calculated at the MP2 level but the densities
           used in the property calculations are still SCF densities
           MP2 response densities have not been calculated 
           use %mp2 Density relaxed end
           or  %mp2 Density unrelaxed end

                                    ---------------------
                                    Active property flags
                                    ---------------------
   (+) Dipole Moment


------------------------------------------------------------------------------
                       ORCA ELECTRIC PROPERTIES CALCULATION
------------------------------------------------------------------------------

Dipole Moment Calculation                       ... on
Quadrupole Moment Calculation                   ... off
Polarizability Calculation                      ... off
GBWName                                         ... PbMACl3_mp2_md_13.orca.gbw
Electron density file                           ... PbMACl3_mp2_md_13.orca.scfp.tmp

-------------
DIPOLE MOMENT
-------------
                                X             Y             Z
Electronic contribution:    -14.82119     -69.33923     -42.92921
Nuclear contribution   :     13.80435      75.12587      43.75751
                        -----------------------------------------
Total Dipole Moment    :     -1.01684       5.78665       0.82830
                        -----------------------------------------
Magnitude (a.u.)       :      5.93341
Magnitude (Debye)      :     15.08153


                         *** MP2 UNRELAXED DENSITY ***

------------------------------------------------------------------------------
                       ORCA ELECTRIC PROPERTIES CALCULATION
------------------------------------------------------------------------------

Dipole Moment Calculation                       ... on
Quadrupole Moment Calculation                   ... off
Polarizability Calculation                      ... off
GBWName                                         ... PbMACl3_mp2_md_13.orca.gbw
Electron density file                           ... PbMACl3_mp2_md_13.orca.pmp2ur

-------------
DIPOLE MOMENT
-------------
                                X             Y             Z
Electronic contribution:    -14.81536     -69.35836     -42.92668
Nuclear contribution   :     13.80435      75.12587      43.75751
                        -----------------------------------------
Total Dipole Moment    :     -1.01102       5.76752       0.83083
                        -----------------------------------------
Magnitude (a.u.)       :      5.91411
Magnitude (Debye)      :     15.03247


                           *** MP2 RELAXED DENSITY ***

------------------------------------------------------------------------------
                       ORCA ELECTRIC PROPERTIES CALCULATION
------------------------------------------------------------------------------

Dipole Moment Calculation                       ... on
Quadrupole Moment Calculation                   ... off
Polarizability Calculation                      ... off
GBWName                                         ... PbMACl3_mp2_md_13.orca.gbw
Electron density file                           ... PbMACl3_mp2_md_13.orca.pmp2re

-------------
DIPOLE MOMENT
-------------
                                X             Y             Z
Electronic contribution:    -14.82570     -69.44266     -42.94564
Nuclear contribution   :     13.80435      75.12587      43.75751
                        -----------------------------------------
Total Dipole Moment    :     -1.02135       5.68322       0.81187
                        -----------------------------------------
Magnitude (a.u.)       :      5.83106
Magnitude (Debye)      :     14.82138


Timings for individual modules:

Sum of individual times         ...      946.406 sec (=  15.773 min)
GTO integral calculation        ...        4.922 sec (=   0.082 min)   0.5 %
SCF iterations                  ...      427.369 sec (=   7.123 min)  45.2 %
MP2 module                      ...      514.115 sec (=   8.569 min)  54.3 %
                             ****ORCA TERMINATED NORMALLY****
TOTAL RUN TIME: 0 days 0 hours 15 minutes 47 seconds 976 msec
