
                                 *****************
                                 * O   R   C   A *
                                 *****************

           --- An Ab Initio, DFT and Semiempirical electronic structure package ---

                  #######################################################
                  #                        -***-                        #
                  #  Department of molecular theory and spectroscopy    #
                  #              Directorship: Frank Neese              #
                  # Max Planck Institute for Chemical Energy Conversion #
                  #                  D-45470 Muelheim/Ruhr              #
                  #                       Germany                       #
                  #                                                     #
                  #                  All rights reserved                #
                  #                        -***-                        #
                  #######################################################


                         Program Version 3.0.3 - RELEASE   -


 With contributions from (in alphabetic order):
   Ute Becker             : Parallelization
   Dmytro Bykov           : SCF Hessian
   Dmitry Ganyushin       : Spin-Orbit,Spin-Spin,Magnetic field MRCI
   Andreas Hansen         : Spin unrestricted coupled pair/coupled cluster methods
   Dimitrios Liakos       : Extrapolation schemes; parallel MDCI
   Robert Izsak           : Overlap fitted RIJCOSX, COSX-SCS-MP3
   Christian Kollmar      : KDIIS, OOCD, Brueckner-CCSD(T), CCSD density
   Simone Kossmann        : Meta GGA functionals, TD-DFT gradient, OOMP2, MP2 Hessian
   Taras Petrenko         : DFT Hessian,TD-DFT gradient, ASA and ECA modules, normal mode analysis, Resonance Raman, ABS, FL, XAS/XES, NRVS
   Christoph Reimann      : Effective Core Potentials
   Michael Roemelt        : Restricted open shell CIS
   Christoph Riplinger    : Improved optimizer, TS searches, QM/MM, DLPNO-CCSD
   Barbara Sandhoefer     : DKH picture change effects
   Igor Schapiro          : Molecular dynamics
   Kantharuban Sivalingam : CASSCF convergence, NEVPT2
   Boris Wezisla          : Elementary symmetry handling
   Frank Wennmohs         : Technical directorship


 We gratefully acknowledge several colleagues who have allowed us to
 interface, adapt or use parts of their codes:
   Stefan Grimme, W. Hujo, H. Kruse, T. Risthaus : VdW corrections, initial TS optimization,
                                                   DFT functionals, gCP
   Ed Valeev                                     : LibInt (2-el integral package), F12 methods
   Garnet Chan, S. Sharma, R. Olivares           : DMRG
   Ulf Ekstrom                                   : XCFun DFT Library
   Mihaly Kallay                                 : mrcc  (arbitrary order and MRCC methods)
   Andreas Klamt, Michael Diedenhofen            : otool_cosmo (COSMO solvation model)
   Frank Weinhold                                : gennbo (NPA and NBO analysis)
   Christopher J. Cramer and Donald G. Truhlar   : smd solvation model


 Your calculation uses the libint2 library for the computation of 2-el integrals
 For citations please refer to: http://libint.valeyev.net

 This ORCA versions uses:
   CBLAS   interface :  Fast vector & matrix operations
   LAPACKE interface :  Fast linear algebra routines
   SCALAPACK package :  Parallel linear algebra routines


Your calculation utilizes the basis: Ahlrichs-TZV
Cite in your paper:
H - Kr: A. Schaefer, H. Horn and R. Ahlrichs, J. Chem. Phys. 97, 2571 (1992).

The def2-TZV basis will be loaded
Cite in your paper:
 	F. Weigend, R. Ahlrichs, Phys. Chem. Chem. Phys. 2005, 7, 3297.

Your calculation utilizes the atom-pairwise dispersion correction
with the Becke-Johnson damping scheme (D3BJ)
Cite in your paper:
S.Grimme, S.Ehrlich, L.Goerigk, J Comput Chem, (2011), 32, 1456–1465 
S.Grimme, J.Antony, S.Ehrlich and H.Krieg, J.Chem.Phys., 132, (2010), 154104 
   

================================================================================
                                        WARNINGS
                       Please study these warnings very carefully!
================================================================================

WARNING: The RI method has been chosen with no auxiliary basis (AUX or GTOAUX in BASIS block)
        Standard TZV/J expansion basis used (GTOAUX=TZV_J)

Now building the actual basis set
cite the ECPs for Pb [SD(60,MDF)] as follows:
  B. Metz, H. Stoll, M. Dolg, J. Chem. Phys. 113, 2563 (2000).

ECP parameters for Pb [SD(60,MDF)] have been obtained from:
  pseudopotential library of the Stuttgart/Cologne group
  http://www.theochem.uni-stuttgart.de/pseudopotentials/

cite the ECP basis sets for Pb [DEF2-TZVP] as follows:
  F. Weigend, R. Ahlrichs; Phys. Chem. Chem. Phys. 7, 3297(2005).

ECP basis sets for Pb [DEF2-TZVP] have been obtained from:
  Turbomole basis set library
  ftp://ftp.chemie.uni-karlsruhe.de/pub/basen/



INFO   : the flag for use of LIBINT has been found!

================================================================================
                                       INPUT FILE
================================================================================
NAME = Pb2Cl11_6NH3CH3_-1_mp2_sp2_8.orca
|  1> ! RIJCOSX RI-B2PLYP D3BJ def2-TZVP ECP{def2-TZVP} TIGHTSCF Grid5 FinalGrid6 MORead
|  2> %maxcore 4000
|  3> %moinp "previous.gbw"
|  4> *xyz -1 1
|  5> C 3.321334 3.304660 2.430157 
|  6> N 2.356571 2.328752 1.891132 
|  7> H 3.929482 2.825089 3.202898 
|  8> H 2.779051 4.148026 2.867131 
|  9> H 3.970752 3.667461 1.628343 
| 10> H 1.712427 1.919960 2.626954 
| 11> H 2.798301 1.476145 1.466883 
| 12> H 1.726191 2.717573 1.143366 
| 13> Pb -0.050002 -0.139880 0.662706 
| 14> Cl 2.784973 -0.579564 0.778847 
| 15> Cl 0.270982 2.935126 -0.239879 
| 16> Cl 0.307350 0.657789 3.449542 
| 17> Cl -3.267458 -0.356938 -0.093605 
| 18> Cl -0.024867 -1.188773 -2.202878 
| 19> Cl -0.556537 -2.819831 1.890641 
| 20> N -2.185808 -3.054212 -0.959335 
| 21> C -3.018599 -3.892984 -1.852407 
| 22> H -2.697680 -2.199715 -0.614166 
| 23> H -1.345672 -2.675212 -1.453465 
| 24> H -3.863008 -4.284793 -1.282203 
| 25> H -2.403708 -4.719219 -2.215644 
| 26> H -3.366846 -3.277457 -2.686457 
| 27> H -1.855008 -3.591944 -0.148281 
| 28> Cl 3.371172 -4.756666 1.520770 
| 29> Cl 1.020369 -5.241506 4.923231 
| 30> Pb 0.254607 -5.483799 1.507615 
| 31> N 2.161285 -2.658962 3.515767 
| 32> C 3.006676 -1.740565 4.311813 
| 33> H 2.698023 -3.156655 2.770259 
| 34> H 1.390718 -2.163400 3.045648 
| 35> H 3.799912 -2.319606 4.793333 
| 36> H 2.384520 -1.246095 5.060700 
| 37> H 3.427402 -0.991699 3.638613 
| 38> H 1.731703 -3.427574 4.095222 
| 39> Cl 0.426219 -5.349829 -1.228693 
| 40> H -2.444419 -8.567556 -2.232135 
| 41> H -0.598109 -7.323819 -1.165277 
| 42> H -1.004862 -9.612620 -2.073837 
| 43> C -1.775778 -9.065444 -1.523604 
| 44> N -1.147567 -8.055720 -0.651573 
| 45> Cl -2.469340 -6.019963 1.044159 
| 46> H -1.842497 -7.478800 -0.094428 
| 47> H -0.483324 -8.457680 0.056334 
| 48> H -2.352281 -9.766255 -0.913124 
| 49> Cl 0.817581 -8.698782 1.684072 
| 50> H -3.020852 1.137851 -3.759427 
| 51> H -2.443836 0.935457 -1.388789 
| 52> C -2.421148 1.915242 -3.276964 
| 53> H -3.072919 2.741318 -2.978333 
| 54> N -1.760461 1.345922 -2.088558 
| 55> H -1.130632 0.530708 -2.323343 
| 56> H -1.666594 2.281032 -3.979276 
| 57> H -1.165922 2.035435 -1.571092 
| 58> H 3.622704 -8.508951 4.939340 
| 59> H 2.344608 -7.817453 2.937850 
| 60> C 4.032137 -7.791101 4.222778 
| 61> H 4.696529 -8.309487 3.525223 
| 62> N 2.932785 -7.146076 3.481813 
| 63> H 2.277052 -6.592786 4.110347 
| 64> H 4.597499 -7.025510 4.762093 
| 65> H 3.269849 -6.425562 2.787786 
| 66> *
| 67> 
| 68>                          ****END OF INPUT****
================================================================================

                       ****************************
                       * Single Point Calculation *
                       ****************************

---------------------------------
CARTESIAN COORDINATES (ANGSTROEM)
---------------------------------
  C      3.321334    3.304660    2.430157
  N      2.356571    2.328752    1.891132
  H      3.929482    2.825089    3.202898
  H      2.779051    4.148026    2.867131
  H      3.970752    3.667461    1.628343
  H      1.712427    1.919960    2.626954
  H      2.798301    1.476145    1.466883
  H      1.726191    2.717573    1.143366
  Pb    -0.050002   -0.139880    0.662706
  Cl     2.784973   -0.579564    0.778847
  Cl     0.270982    2.935126   -0.239879
  Cl     0.307350    0.657789    3.449542
  Cl    -3.267458   -0.356938   -0.093605
  Cl    -0.024867   -1.188773   -2.202878
  Cl    -0.556537   -2.819831    1.890641
  N     -2.185808   -3.054212   -0.959335
  C     -3.018599   -3.892984   -1.852407
  H     -2.697680   -2.199715   -0.614166
  H     -1.345672   -2.675212   -1.453465
  H     -3.863008   -4.284793   -1.282203
  H     -2.403708   -4.719219   -2.215644
  H     -3.366846   -3.277457   -2.686457
  H     -1.855008   -3.591944   -0.148281
  Cl     3.371172   -4.756666    1.520770
  Cl     1.020369   -5.241506    4.923231
  Pb     0.254607   -5.483799    1.507615
  N      2.161285   -2.658962    3.515767
  C      3.006676   -1.740565    4.311813
  H      2.698023   -3.156655    2.770259
  H      1.390718   -2.163400    3.045648
  H      3.799912   -2.319606    4.793333
  H      2.384520   -1.246095    5.060700
  H      3.427402   -0.991699    3.638613
  H      1.731703   -3.427574    4.095222
  Cl     0.426219   -5.349829   -1.228693
  H     -2.444419   -8.567556   -2.232135
  H     -0.598109   -7.323819   -1.165277
  H     -1.004862   -9.612620   -2.073837
  C     -1.775778   -9.065444   -1.523604
  N     -1.147567   -8.055720   -0.651573
  Cl    -2.469340   -6.019963    1.044159
  H     -1.842497   -7.478800   -0.094428
  H     -0.483324   -8.457680    0.056334
  H     -2.352281   -9.766255   -0.913124
  Cl     0.817581   -8.698782    1.684072
  H     -3.020852    1.137851   -3.759427
  H     -2.443836    0.935457   -1.388789
  C     -2.421148    1.915242   -3.276964
  H     -3.072919    2.741318   -2.978333
  N     -1.760461    1.345922   -2.088558
  H     -1.130632    0.530708   -2.323343
  H     -1.666594    2.281032   -3.979276
  H     -1.165922    2.035435   -1.571092
  H      3.622704   -8.508951    4.939340
  H      2.344608   -7.817453    2.937850
  C      4.032137   -7.791101    4.222778
  H      4.696529   -8.309487    3.525223
  N      2.932785   -7.146076    3.481813
  H      2.277052   -6.592786    4.110347
  H      4.597499   -7.025510    4.762093
  H      3.269849   -6.425562    2.787786

----------------------------
CARTESIAN COORDINATES (A.U.)
----------------------------
  NO LB      ZA    FRAG    MASS        X           Y           Z
   0 C     6.0000    0    12.011          6.276411659281206          6.244902365724204          4.592331192431667
   1 N     7.0000    0    14.007          4.453273805140938          4.400703513821383          3.573721563094765
   2 H     1.0000    0     1.008          7.425644828173148          5.338644513953455          6.052600054884109
   3 H     1.0000    0     1.008          5.251645302199988          7.838633136384834          5.418092380075772
   4 H     1.0000    0     1.008          7.503633825720078          6.930496896836967          3.077122322087733
   5 H     1.0000    0     1.008          3.236018054332367          3.628198588083447          4.964223626408968
   6 H     1.0000    0     1.008          5.288022530277972          2.789509783957186          2.772007140504807
   7 H     1.0000    0     1.008          3.262028244839660          5.135468718938777          2.160648610837006
   8 Pb   22.0000*   0   207.200  -0.094490086148330  -0.264334891612905  1.252332847306417
   9 Cl   17.0000    0    35.453          5.262836260365070         -1.095217237079936          1.471807530226165
  10 Cl   17.0000    0    35.453          0.512081767222249          5.546584308551748         -0.453305615278896
  11 Cl   17.0000    0    35.453          0.580807327260697          1.243041063905926          6.518689667458982
  12 Cl   17.0000    0    35.453         -6.174600774090065         -0.674515066789584         -0.176887814765699
  13 Cl   17.0000    0    35.453         -0.046991819772220         -2.246455405399968         -4.162836126440180
  14 Cl   17.0000    0    35.453         -1.051702513394132         -5.328708333941298          3.572793707563009
  15 N     7.0000    0    14.007         -4.130578501334144         -5.771624234935894         -1.812880420685344
  16 C     6.0000    0    12.011         -5.704325418128557         -7.356673603737290         -3.500541918558664
  17 H     1.0000    0     1.008         -5.097876396956682         -4.156858922678586         -1.160605540765880
  18 H     1.0000    0     1.008         -2.542951546086079         -5.055418030179740         -2.746650795239852
  19 H     1.0000    0     1.008         -7.300027173146867         -8.097085310542841         -2.423012518092230
  20 H     1.0000    0     1.008         -4.542349825915584         -8.918031475997715         -4.186960370265818
  21 H     1.0000    0     1.008         -6.362416875088230         -6.193496145703143         -5.076668000555684
  22 H     1.0000    0     1.008         -3.505457096232993         -6.787790448381636         -0.280210480863977
  23 Cl   17.0000    0    35.453          6.370591830343574         -8.988796050534665          2.873838812683422
  24 Cl   17.0000    0    35.453          1.928217965543094         -9.905010869305045          9.303558284031258
  25 Pb   22.0000*   0   207.200  0.481137501779288  -10.362878283471227  2.848979465391688
  26 N     7.0000    0    14.007          4.084236747351992         -5.024709980503519          6.643836780677917
  27 C     6.0000    0    12.011          5.681794213433814         -3.289191168288643          8.148145710681394
  28 H     1.0000    0     1.008          5.098524573020617         -5.965213449273189          5.235030830030552
  29 H     1.0000    0     1.008          2.628076149514695         -4.088233518125236          5.755440620324992
  30 H     1.0000    0     1.008          7.180793013000971         -4.383420078600539          9.058086638687154
  31 H     1.0000    0     1.008          4.506089760857903         -2.354778286848602          9.563337045935278
  32 H     1.0000    0     1.008          6.476851130853966         -1.874039517283571          6.875982077325607
  33 H     1.0000    0     1.008          3.272444415289833         -6.477176163749000          7.738848037609255
  34 Cl   17.0000    0    35.453          0.805437183073782        -10.109711673309794         -2.321893272666105
  35 H     1.0000    0     1.008         -4.619282466553652        -16.190334477033822         -4.218123843940313
  36 H     1.0000    0     1.008         -1.130262208233506        -13.840012164409009         -2.202054400157354
  37 H     1.0000    0     1.008         -1.898913982384377        -18.165219229454102         -3.918983976392847
  38 C     6.0000    0    12.011         -3.355734094642413        -17.131206442399606         -2.879194296546955
  39 N     7.0000    0    14.007         -2.168587350325609        -15.223104611552108         -1.231294526257472
  40 Cl   17.0000    0    35.453         -4.666376331537103        -11.376081406338979          1.973174550269080
  41 H     1.0000    0     1.008         -3.481814732571504        -14.132883810370256         -0.178443059373916
  42 H     1.0000    0     1.008         -0.913349993951355        -15.982698928343092          0.106455832028320
  43 H     1.0000    0     1.008         -4.445166880026416        -18.455547304039094         -1.725554286310709
  44 Cl   17.0000    0    35.453          1.545004182297471        -16.438315678683772          3.182434869805030
  45 H     1.0000    0     1.008         -5.708582971108281          2.150226771208430         -7.104287450469170
  46 H     1.0000    0     1.008         -4.618180756217576          1.767757540059572         -2.624430867802361
  47 C     6.0000    0    12.011         -4.575306649691171          3.619282860183606         -6.192564510719120
  48 H     1.0000    0     1.008         -5.806975341723159          5.180340265988738         -5.628233705620083
  49 N     7.0000    0    14.007         -3.326789159449141          2.543423977619559         -3.946802634810302
  50 H     1.0000    0     1.008         -2.136584838247653          1.002892777081080         -4.390481985163002
  51 H     1.0000    0     1.008         -3.149406236436354          4.310525782710661         -7.519741851285623
  52 H     1.0000    0     1.008         -2.203273273513733          3.846414713398003         -2.968933611194607
  53 H     1.0000    0     1.008          6.845918424261054        -16.079587076955367          9.333999882322594
  54 H     1.0000    0     1.008          4.430667011400838        -14.772845234801091          5.551731922540549
  55 C     6.0000    0    12.011          7.619634664450833        -14.723047171719998          7.979893944347715
  56 H     1.0000    0     1.008          8.875153590019043        -15.702654743378901          6.661706031000277
  57 N     7.0000    0    14.007          5.542160459672238        -13.504126572187442          6.579673019526755
  58 H     1.0000    0     1.008          4.303004672697654        -12.458559999550154          7.767430145384815
  59 H     1.0000    0     1.008          8.688014010976820        -13.276289851125092          8.999051594263456
  60 H     1.0000    0     1.008          6.179119109276271        -12.142552436531306          5.268152059979791
* core charge reduced due to ECP

--------------------------------
INTERNAL COORDINATES (ANGSTROEM)
--------------------------------
 C      0   0   0   0.000000     0.000     0.000
 N      1   0   0   1.474351     0.000     0.000
 H      1   2   0   1.094057   109.379     0.000
 H      1   2   3   1.093747   109.392   240.247
 H      1   2   3   1.093743   109.882   120.181
 H      2   1   3   1.059937   113.525    58.337
 H      2   1   3   1.049786   114.205   300.796
 H      2   1   3   1.052480   114.026   179.570
 Pb     6   2   1   3.347741    98.622   180.766
 Cl     7   2   1   2.167835   153.617   159.829
 Cl     8   2   1   2.019487   163.342   185.603
 Cl     6   2   1   2.060089   158.123   190.919
 Cl     9   6   2   3.312272   133.289   240.509
 Cl     9   6   2   3.051619   139.299     8.302
 Cl     9   6   2   2.991077   113.551   138.002
 N     13   9   6   3.032283    77.114   196.612
 C     16  13   9   1.481437   118.374   195.429
 H     16  13   9   1.054191     8.994   144.135
 H     16  13   9   1.045770    95.687   314.025
 H     17  16  13   1.091638   108.854   288.149
 H     17  16  13   1.092106   108.201   168.944
 H     17  16  13   1.093521   108.670    48.836
 H     16  13   9   1.027810   110.787    65.400
 Cl    10   7   2   4.282786   150.349   269.692
 Cl    24  10   7   4.163903   100.244    51.956
 Pb    15   9   6   2.810941   138.101   249.565
 N     24  10   7   3.137547    53.508    37.247
 C     27  24  10   1.480482   122.442   279.733
 H     27  24  10   1.044781    13.999   328.455
 H     27  24  10   1.029741   108.664    52.794
 H     28  27  24   1.093789   108.810   311.241
 H     28  27  24   1.091975   108.924   190.659
 H     28  27  24   1.091334   108.308    71.772
 H     27  24  10   1.054075    91.099   161.453
 Cl    26  15   9   2.744955    96.178   324.969
 H     21  17  16   3.848588   138.761   122.863
 H     35  26  15   2.224838    84.232   223.716
 H     36  21  17   1.785929   125.185   216.379
 C     38  36  21   1.093832    35.291    87.016
 N     37  35  26   1.049512   150.896    15.257
 Cl    23  16  13   2.773913   136.542   119.767
 H     40  37  35   1.061214   102.750    40.876
 H     40  37  35   1.050677   105.403   290.535
 H     39  38  36   1.093699   109.375   119.736
 Cl    43  40  37   2.097621   163.514    64.127
 H     13   9   6   3.966543    97.235   105.362
 H     13   9   6   2.006524    72.930    87.332
 C     46  13   9   1.093962    83.932   312.500
 H     48  46  13   1.093795   109.295   268.158
 N     47  13   9   1.060735   159.970    46.654
 H     50  47  13   1.056590   103.419    11.153
 H     48  46  13   1.093799   109.429   148.256
 H     50  47  13   1.047223   107.131   259.184
 H     25  24  10   4.177153    75.079   199.802
 H     45  43  40   2.163449   147.206   324.561
 C     54  25  24   1.093803    73.579    14.865
 H     56  54  25   1.093949   109.516   201.531
 N     55  45  43   1.045273   163.825    31.700
 H     58  55  45   1.063565   107.143    52.011
 H     56  54  25   1.093903   109.256    81.724
 H     58  55  45   1.055664   106.017   302.176

---------------------------
INTERNAL COORDINATES (A.U.)
---------------------------
 C      0   0   0   0.000000     0.000     0.000
 N      1   0   0   2.786120     0.000     0.000
 H      1   2   0   2.067468   109.379     0.000
 H      1   2   3   2.066883   109.392   240.247
 H      1   2   3   2.066875   109.882   120.181
 H      2   1   3   2.002991   113.525    58.337
 H      2   1   3   1.983809   114.205   300.796
 H      2   1   3   1.988899   114.026   179.570
 Pb     6   2   1   6.326313    98.622   180.766
 Cl     7   2   1   4.096615   153.617   159.829
 Cl     8   2   1   3.816278   163.342   185.603
 Cl     6   2   1   3.893005   158.123   190.919
 Cl     9   6   2   6.259286   133.289   240.509
 Cl     9   6   2   5.766725   139.299     8.302
 Cl     9   6   2   5.652316   113.551   138.002
 N     13   9   6   5.730185    77.114   196.612
 C     16  13   9   2.799511   118.374   195.429
 H     16  13   9   1.992133     8.994   144.135
 H     16  13   9   1.976218    95.687   314.025
 H     17  16  13   2.062897   108.854   288.149
 H     17  16  13   2.063782   108.201   168.944
 H     17  16  13   2.066456   108.670    48.836
 H     16  13   9   1.942279   110.787    65.400
 Cl    10   7   2   8.093294   150.349   269.692
 Cl    24  10   7   7.868636   100.244    51.956
 Pb    15   9   6   5.311909   138.101   249.565
 N     24  10   7   5.929105    53.508    37.247
 C     27  24  10   2.797706   122.442   279.733
 H     27  24  10   1.974351    13.999   328.455
 H     27  24  10   1.945929   108.664    52.794
 H     28  27  24   2.066961   108.810   311.241
 H     28  27  24   2.063535   108.924   190.659
 H     28  27  24   2.062322   108.308    71.772
 H     27  24  10   1.991912    91.099   161.453
 Cl    26  15   9   5.187214    96.178   324.969
 H     21  17  16   7.272777   138.761   122.863
 H     35  26  15   4.204335    84.232   223.716
 H     36  21  17   3.374916   125.185   216.379
 C     38  36  21   2.067044    35.291    87.016
 N     37  35  26   1.983290   150.896    15.257
 Cl    23  16  13   5.241936   136.542   119.767
 H     40  37  35   2.005404   102.750    40.876
 H     40  37  35   1.985492   105.403   290.535
 H     39  38  36   2.066792   109.375   119.736
 Cl    43  40  37   3.963930   163.514    64.127
 H     13   9   6   7.495679    97.235   105.362
 H     13   9   6   3.791781    72.930    87.332
 C     46  13   9   2.067288    83.932   312.500
 H     48  46  13   2.066973   109.295   268.158
 N     47  13   9   2.004499   159.970    46.654
 H     50  47  13   1.996666   103.419    11.153
 H     48  46  13   2.066981   109.429   148.256
 H     50  47  13   1.978965   107.131   259.184
 H     25  24  10   7.893674    75.079   199.802
 H     45  43  40   4.088326   147.206   324.561
 C     54  25  24   2.066988    73.579    14.865
 H     56  54  25   2.067263   109.516   201.531
 N     55  45  43   1.975279   163.825    31.700
 H     58  55  45   2.009847   107.143    52.011
 H     56  54  25   2.067178   109.256    81.724
 H     58  55  45   1.994915   106.017   302.176

---------------------
BASIS SET INFORMATION
---------------------
There are 5 groups of distinct atoms

 Group   1 Type C   : 11s6p2d1f contracted to 5s3p2d1f pattern {62111/411/11/1}
 Group   2 Type N   : 11s6p2d1f contracted to 5s3p2d1f pattern {62111/411/11/1}
 Group   3 Type H   : 5s1p contracted to 3s1p pattern {311/1}
 Group   4 Type Pb  : 10s9p8d2f contracted to 6s5p3d2f pattern {421111/33111/611/11}
 Group   5 Type Cl  : 14s9p3d1f contracted to 5s5p2d1f pattern {73211/51111/21/1}

Atom   0C    basis set group =>   1
Atom   1N    basis set group =>   2
Atom   2H    basis set group =>   3
Atom   3H    basis set group =>   3
Atom   4H    basis set group =>   3
Atom   5H    basis set group =>   3
Atom   6H    basis set group =>   3
Atom   7H    basis set group =>   3
Atom   8Pb   basis set group =>   4
Atom   9Cl   basis set group =>   5
Atom  10Cl   basis set group =>   5
Atom  11Cl   basis set group =>   5
Atom  12Cl   basis set group =>   5
Atom  13Cl   basis set group =>   5
Atom  14Cl   basis set group =>   5
Atom  15N    basis set group =>   2
Atom  16C    basis set group =>   1
Atom  17H    basis set group =>   3
Atom  18H    basis set group =>   3
Atom  19H    basis set group =>   3
Atom  20H    basis set group =>   3
Atom  21H    basis set group =>   3
Atom  22H    basis set group =>   3
Atom  23Cl   basis set group =>   5
Atom  24Cl   basis set group =>   5
Atom  25Pb   basis set group =>   4
Atom  26N    basis set group =>   2
Atom  27C    basis set group =>   1
Atom  28H    basis set group =>   3
Atom  29H    basis set group =>   3
Atom  30H    basis set group =>   3
Atom  31H    basis set group =>   3
Atom  32H    basis set group =>   3
Atom  33H    basis set group =>   3
Atom  34Cl   basis set group =>   5
Atom  35H    basis set group =>   3
Atom  36H    basis set group =>   3
Atom  37H    basis set group =>   3
Atom  38C    basis set group =>   1
Atom  39N    basis set group =>   2
Atom  40Cl   basis set group =>   5
Atom  41H    basis set group =>   3
Atom  42H    basis set group =>   3
Atom  43H    basis set group =>   3
Atom  44Cl   basis set group =>   5
Atom  45H    basis set group =>   3
Atom  46H    basis set group =>   3
Atom  47C    basis set group =>   1
Atom  48H    basis set group =>   3
Atom  49N    basis set group =>   2
Atom  50H    basis set group =>   3
Atom  51H    basis set group =>   3
Atom  52H    basis set group =>   3
Atom  53H    basis set group =>   3
Atom  54H    basis set group =>   3
Atom  55C    basis set group =>   1
Atom  56H    basis set group =>   3
Atom  57N    basis set group =>   2
Atom  58H    basis set group =>   3
Atom  59H    basis set group =>   3
Atom  60H    basis set group =>   3
-------------------------------
AUXILIARY BASIS SET INFORMATION
-------------------------------
There are 5 groups of distinct atoms

 Group   1 Type C   : 12s5p4d2f1g contracted to 6s4p3d1f1g pattern {711111/2111/211/2/1}
 Group   2 Type N   : 12s5p4d2f1g contracted to 6s4p3d1f1g pattern {711111/2111/211/2/1}
 Group   3 Type H   : 5s2p1d contracted to 3s1p1d pattern {311/2/1}
 Group   4 Type Pb  : 31s12p8d6f3g contracted to 31s12p8d6f3g pattern {1111111111111111111111111111111/111111111111/11111111/111111/111}
 Group   5 Type Cl  : 14s5p5d2f1g contracted to 8s4p3d1f1g pattern {71111111/2111/311/2/1}

Atom   0C    basis set group =>   1
Atom   1N    basis set group =>   2
Atom   2H    basis set group =>   3
Atom   3H    basis set group =>   3
Atom   4H    basis set group =>   3
Atom   5H    basis set group =>   3
Atom   6H    basis set group =>   3
Atom   7H    basis set group =>   3
Atom   8Pb   basis set group =>   4
Atom   9Cl   basis set group =>   5
Atom  10Cl   basis set group =>   5
Atom  11Cl   basis set group =>   5
Atom  12Cl   basis set group =>   5
Atom  13Cl   basis set group =>   5
Atom  14Cl   basis set group =>   5
Atom  15N    basis set group =>   2
Atom  16C    basis set group =>   1
Atom  17H    basis set group =>   3
Atom  18H    basis set group =>   3
Atom  19H    basis set group =>   3
Atom  20H    basis set group =>   3
Atom  21H    basis set group =>   3
Atom  22H    basis set group =>   3
Atom  23Cl   basis set group =>   5
Atom  24Cl   basis set group =>   5
Atom  25Pb   basis set group =>   4
Atom  26N    basis set group =>   2
Atom  27C    basis set group =>   1
Atom  28H    basis set group =>   3
Atom  29H    basis set group =>   3
Atom  30H    basis set group =>   3
Atom  31H    basis set group =>   3
Atom  32H    basis set group =>   3
Atom  33H    basis set group =>   3
Atom  34Cl   basis set group =>   5
Atom  35H    basis set group =>   3
Atom  36H    basis set group =>   3
Atom  37H    basis set group =>   3
Atom  38C    basis set group =>   1
Atom  39N    basis set group =>   2
Atom  40Cl   basis set group =>   5
Atom  41H    basis set group =>   3
Atom  42H    basis set group =>   3
Atom  43H    basis set group =>   3
Atom  44Cl   basis set group =>   5
Atom  45H    basis set group =>   3
Atom  46H    basis set group =>   3
Atom  47C    basis set group =>   1
Atom  48H    basis set group =>   3
Atom  49N    basis set group =>   2
Atom  50H    basis set group =>   3
Atom  51H    basis set group =>   3
Atom  52H    basis set group =>   3
Atom  53H    basis set group =>   3
Atom  54H    basis set group =>   3
Atom  55C    basis set group =>   1
Atom  56H    basis set group =>   3
Atom  57N    basis set group =>   2
Atom  58H    basis set group =>   3
Atom  59H    basis set group =>   3
Atom  60H    basis set group =>   3

-------------------------
ECP PARAMETER INFORMATION
-------------------------

 Group 1, Type Pb ECP SD(60,MDF) (replacing 60 core electrons, lmax=5)

Atom   8Pb   ECP group =>   1
Atom  25Pb   ECP group =>   1


------------------------------------------------------------------------------
                           ORCA GTO INTEGRAL CALCULATION
                           -- RI-GTO INTEGRALS CHOSEN --
------------------------------------------------------------------------------

                         BASIS SET STATISTICS AND STARTUP INFO

Gaussian basis set:
 # of primitive gaussian shells          ...  811
 # of primitive gaussian functions       ... 1715
 # of contracted shells                  ...  451
 # of contracted basis functions         ... 1095
 Highest angular momentum                ...    3
 Maximum contraction depth               ...    7
Auxiliary gaussian basis set:
 # of primitive gaussian shells          ...  993
 # of primitive gaussian functions       ... 2615
 # of contracted shells                  ...  667
 # of contracted aux-basis functions     ... 1897
 Highest angular momentum                ...    4
 Maximum contraction depth               ...    7
Ratio of auxiliary to basis functions    ...  1.73
Integral package used                  ... LIBINT
 One Electron integrals                  
   ECP integrals                         ... done
 Ordering auxiliary basis shells         ... done
 Integral threshhold             Thresh  ...  2.500e-11
 Primitive cut-off               TCut    ...  2.500e-12
 Pre-screening matrix                    ... done
 Shell pair data                         ... 
 Ordering of the shell pairs             ... done (   0.010 sec) 48298 of 101926 pairs
 Determination of significant pairs      ... done (   0.000 sec)
 Creation of shell pair data             ... done (   0.009 sec)
 Storage of shell pair data              ... done (   0.008 sec)
 Shell pair data done in (   0.027 sec)
 Computing two index integrals           ... done
 Cholesky decomposition of the V-matrix  ... done


Timings:
 Total evaluation time                   ...   7.133 sec (  0.119 min)
 One electron matrix time                ...   4.605 sec (  0.077 min) = 64.6%
 Schwartz matrix evaluation time         ...   2.033 sec (  0.034 min) = 28.5%
 Two index repulsion integral time       ...   0.119 sec (  0.002 min) =  1.7%
 Cholesky decomposition of V             ...   0.322 sec (  0.005 min) =  4.5%
 Three index repulsion integral time     ...   0.000 sec (  0.000 min) =  0.0%

-------------------------------------------------------------------------------
                                 ORCA SCF
-------------------------------------------------------------------------------

------------
SCF SETTINGS
------------
Hamiltonian:
 Density Functional     Method          .... DFT(GTOs)
 Exchange Functional    Exchange        .... B88
   X-Alpha parameter    XAlpha          ....  0.666667
   Becke's b parameter  XBeta           ....  0.004200
 Correlation Functional Correlation     .... LYP
 LDA part of GGA corr.  LDAOpt          .... VWN-3
 Gradients option       PostSCFGGA      .... off
 Hybrid DFT is turned on
   Fraction HF Exchange ScalHFX         ....  0.530000
   Scaling of DF-GGA-X  ScalDFX         ....  0.470000
   Scaling of DF-GGA-C  ScalDFC         ....  0.730000
   Scaling of DF-LDA-C  ScalLDAC        ....  0.730000
   Perturbative correction              ....  0.270000
 RI-approximation to the Coulomb term is turned on
   Number of auxiliary basis functions  .... 1897
   RIJ-COSX (HFX calculated with COS-X)).... on


General Settings:
 Integral files         IntName         .... Pb2Cl11_6NH3CH3_-1_mp2_sp2_8.orca
 Hartree-Fock type      HFTyp           .... RHF
 Total Charge           Charge          ....   -1
 Multiplicity           Mult            ....    1
 Number of Electrons    NEL             ....  346
 Basis Dimension        Dim             .... 1095
 Nuclear Repulsion      ENuc            ....   5896.1702924149 Eh

Convergence Acceleration:
 DIIS                   CNVDIIS         .... on
   Start iteration      DIISMaxIt       ....    12
   Startup error        DIISStart       ....  0.200000
   # of expansion vecs  DIISMaxEq       ....     5
   Bias factor          DIISBfac        ....   1.050
   Max. coefficient     DIISMaxC        ....  10.000
 Newton-Raphson         CNVNR           .... off
 SOSCF                  CNVSOSCF        .... on
   Start iteration      SOSCFMaxIt      ....   150
   Startup grad/error   SOSCFStart      ....  0.003300
 Level Shifting         CNVShift        .... on
   Level shift para.    LevelShift      ....    0.2500
   Turn off err/grad.   ShiftErr        ....    0.0010
 Zerner damping         CNVZerner       .... off
 Static damping         CNVDamp         .... on
   Fraction old density DampFac         ....    0.7000
   Max. Damping (<1)    DampMax         ....    0.9800
   Min. Damping (>=0)   DampMin         ....    0.0000
   Turn off err/grad.   DampErr         ....    0.1000
 Fernandez-Rico         CNVRico         .... off

SCF Procedure:
 Maximum # iterations   MaxIter         ....   125
 SCF integral mode      SCFMode         .... Direct
   Integral package                     .... LIBINT
 Reset frequeny         DirectResetFreq ....    20
 Integral Threshold     Thresh          ....  2.500e-11 Eh
 Primitive CutOff       TCut            ....  2.500e-12 Eh

Convergence Tolerance:
 Convergence Check Mode ConvCheckMode   .... Total+1el-Energy
 Energy Change          TolE            ....  1.000e-08 Eh
 1-El. energy change                    ....  1.000e-05 Eh
 Orbital Gradient       TolG            ....  1.000e-05
 Orbital Rotation angle TolX            ....  1.000e-05
 DIIS Error             TolErr          ....  5.000e-07


Diagonalization of the overlap matrix:
Smallest eigenvalue                        ... 8.287e-04
Time for diagonalization                   ...    0.965 sec
Threshold for overlap eigenvalues          ... 1.000e-08
Number of eigenvalues below threshold      ... 0
Time for construction of square roots      ...    0.468 sec
Total time needed                          ...    1.436 sec

---------------------
INITIAL GUESS: MOREAD
---------------------
Guess MOs are being read from file: previous.gbw
Input Geometry matches current geometry (good)
Input basis set matches current basis set (good)
MOs were renormalized
MOs were reorthogonalized (Cholesky)
                      ------------------
                      INITIAL GUESS DONE (   1.5 sec)
                      ------------------
-------------------
DFT GRID GENERATION
-------------------

General Integration Accuracy     IntAcc      ...  5.010
Radial Grid Type                 RadialGrid  ... Gauss-Chebyshev
Angular Grid (max. acc.)         AngularGrid ... Lebedev-434
Angular grid pruning method      GridPruning ... 3 (G Style)
Weight generation scheme         WeightScheme... Becke
Basis function cutoff            BFCut       ...    1.0000e-11
Integration weight cutoff        WCut        ...    1.0000e-14
Grids for H and He will be reduced by one unit

# of grid points (after initial pruning)     ... 536944 (   0.5 sec)
# of grid points (after weights+screening)   ... 471549 (  17.6 sec)
nearest neighbour list constructed           ...    0.0 sec
Grid point re-assignment to atoms done       ...    0.2 sec
Grid point division into batches done        ...    3.5 sec
Reduced shell lists constructed in   18.2 sec

Total number of grid points                  ...   471549
Total number of batches                      ...     7399
Average number of points per batch           ...       63
Average number of grid points per atom       ...     7730
Average number of shells per batch           ...   108.15 (23.98%)
Average number of basis functions per batch  ...   250.77 (22.90%)
Average number of large shells per batch     ...    63.60 (58.80%)
Average number of large basis fcns per batch ...   150.24 (59.91%)
Maximum spatial batch extension              ...  30.33, 29.48, 28.61 au
Average spatial batch extension              ...   1.81,  1.77,  1.81 au

Time for grid setup =   36.335 sec

--------------------
COSX GRID GENERATION
--------------------

General Integration Accuracy     IntAcc      ...  3.340
Radial Grid Type                 RadialGrid  ... Gauss-Chebyshev
Angular Grid (max. acc.)         AngularGrid ... Lebedev-50
Angular grid pruning method      GridPruning ... 3 (G Style)
Weight generation scheme         WeightScheme... Becke
Basis function cutoff            BFCut       ...    1.0000e-11
Integration weight cutoff        WCut        ...    1.0000e-14
Grids for H and He will be reduced by one unit

# of grid points (after initial pruning)     ...  28950 (   0.0 sec)
# of grid points (after weights+screening)   ...  26081 (   0.9 sec)
nearest neighbour list constructed           ...    0.0 sec
Grid point re-assignment to atoms done       ...    0.0 sec
Grid point division into batches done        ...    0.0 sec
Reduced shell lists constructed in    1.2 sec

Total number of grid points                  ...    26081
Total number of batches                      ...      440
Average number of points per batch           ...       59
Average number of grid points per atom       ...      428
Average number of shells per batch           ...   138.77 (30.77%)
Average number of basis functions per batch  ...   329.26 (30.07%)
Average number of large shells per batch     ...    81.88 (59.00%)
Average number of large basis fcns per batch ...   196.14 (59.57%)
Maximum spatial batch extension              ...  23.64, 21.36, 22.05 au
Average spatial batch extension              ...   4.60,  4.36,  4.66 au

Overlap Fitting                  UseSFitting ... on
Constructing numerical overlap ... done (      1.1 sec)
Inverting numerical overlap    ... done (      0.2 sec)
Obtaining analytic overlap     ... done (      0.0 sec)
Final contraction and storage  ... done (      0.2 sec)


General Integration Accuracy     IntAcc      ...  3.670
Radial Grid Type                 RadialGrid  ... Gauss-Chebyshev
Angular Grid (max. acc.)         AngularGrid ... Lebedev-50
Angular grid pruning method      GridPruning ... 3 (G Style)
Weight generation scheme         WeightScheme... Becke
Basis function cutoff            BFCut       ...    1.0000e-11
Integration weight cutoff        WCut        ...    1.0000e-14
Grids for H and He will be reduced by one unit

# of grid points (after initial pruning)     ...  36590 (   0.0 sec)
# of grid points (after weights+screening)   ...  32871 (   1.2 sec)
nearest neighbour list constructed           ...    0.0 sec
Grid point re-assignment to atoms done       ...    0.0 sec
Grid point division into batches done        ...    0.0 sec
Reduced shell lists constructed in    1.4 sec

Total number of grid points                  ...    32871
Total number of batches                      ...      539
Average number of points per batch           ...       60
Average number of grid points per atom       ...      539
Average number of shells per batch           ...   134.42 (29.80%)
Average number of basis functions per batch  ...   317.75 (29.02%)
Average number of large shells per batch     ...    79.20 (58.92%)
Average number of large basis fcns per batch ...   189.15 (59.53%)
Maximum spatial batch extension              ...  23.93, 21.89, 22.66 au
Average spatial batch extension              ...   4.30,  4.02,  4.34 au

Overlap Fitting                  UseSFitting ... on
Constructing numerical overlap ... done (      1.3 sec)
Inverting numerical overlap    ... done (      0.1 sec)
Obtaining analytic overlap     ... done (      0.0 sec)
Final contraction and storage  ... done (      0.2 sec)


General Integration Accuracy     IntAcc      ...  4.010
Radial Grid Type                 RadialGrid  ... Gauss-Chebyshev
Angular Grid (max. acc.)         AngularGrid ... Lebedev-110
Angular grid pruning method      GridPruning ... 3 (G Style)
Weight generation scheme         WeightScheme... Becke
Basis function cutoff            BFCut       ...    1.0000e-11
Integration weight cutoff        WCut        ...    1.0000e-14
Grids for H and He will be reduced by one unit

# of grid points (after initial pruning)     ...  66396 (   0.0 sec)
# of grid points (after weights+screening)   ...  59876 (   2.2 sec)
nearest neighbour list constructed           ...    0.0 sec
Grid point re-assignment to atoms done       ...    0.0 sec
Grid point division into batches done        ...    0.1 sec
Reduced shell lists constructed in    2.5 sec

Total number of grid points                  ...    59876
Total number of batches                      ...      965
Average number of points per batch           ...       62
Average number of grid points per atom       ...      982
Average number of shells per batch           ...   128.29 (28.44%)
Average number of basis functions per batch  ...   302.49 (27.62%)
Average number of large shells per batch     ...    75.94 (59.20%)
Average number of large basis fcns per batch ...   181.34 (59.95%)
Maximum spatial batch extension              ...  26.09, 25.37, 25.87 au
Average spatial batch extension              ...   3.72,  3.47,  3.72 au

Overlap Fitting                  UseSFitting ... on
Constructing numerical overlap ... done (      2.1 sec)
Inverting numerical overlap    ... done (      0.1 sec)
Obtaining analytic overlap     ... done (      0.0 sec)
Final contraction and storage  ... done (      0.2 sec)

Time for X-Grid setup             =   15.349 sec
--------------
SCF ITERATIONS
--------------
ITER       Energy         Delta-E        Max-DP      RMS-DP      [F,P]     Damp
               ***  Starting incremental Fock matrix formation  ***
                      *** Initiating the SOSCF procedure ***
                      *** Re-Reading the Fockian *** 
                      *** Removing any level shift *** 
ITER      Energy       Delta-E        Grad      Rot      Max-DP    RMS-DP
  0  -6023.63362547 -6023.6336254676  0.000002  0.000002  0.000007  0.000000
               *** Restarting incremental Fock matrix formation ***
                 **** Energy Check signals convergence ****
              ***Rediagonalizing the Fockian in SOSCF/NRSCF***

               *****************************************************
               *                     SUCCESS                       *
               *           SCF CONVERGED AFTER   1 CYCLES          *
               *****************************************************

Old exchange energy                            =   -221.017338797 Eh
New exchange energy                            =   -221.029069503 Eh
Exchange energy change after final integration =     -0.011730706 Eh
Total energy after final integration           =  -6023.645356177 Eh
Final COS-X integration done in                =   523.309 sec

----------------
TOTAL SCF ENERGY
----------------

Total Energy       :        -6023.64535618 Eh         -163911.72325 eV

Components:
Nuclear Repulsion  :         5896.17029241 Eh          160442.95042 eV
Electronic Energy  :       -11919.81564859 Eh         -324354.67367 eV

One Electron Energy:       -20261.15596173 Eh         -551334.08300 eV
Two Electron Energy:         8341.34031314 Eh          226979.40933 eV

Virial components:
Potential Energy   :       -11780.42928865 Eh         -320561.77799 eV
Kinetic Energy     :         5756.78393247 Eh          156650.05474 eV
Virial Ratio       :            2.04635599


DFT components:
N(Alpha)           :      173.000084773995 electrons
N(Beta)            :      173.000084773995 electrons
N(Total)           :      346.000169547990 electrons
E(X)               :     -196.138314981616 Eh       
E(C)               :       -9.609588187743 Eh       
E(XC)              :     -205.747903169359 Eh       

---------------
SCF CONVERGENCE
---------------

  Last Energy change         ...   -2.8567e-09  Tolerance :   1.0000e-08
  Last MAX-Density change    ...    1.3491e-13  Tolerance :   1.0000e-07
  Last RMS-Density change    ...    5.8727e-16  Tolerance :   5.0000e-09
  Last Orbital Gradient      ...    8.6308e-07  Tolerance :   1.0000e-05
  Last Orbital Rotation      ...    2.8118e-06  Tolerance :   1.0000e-05

             **** THE GBW FILE WAS UPDATED (Pb2Cl11_6NH3CH3_-1_mp2_sp2_8.orca.gbw) ****
             **** DENSITY FILE WAS UPDATED (Pb2Cl11_6NH3CH3_-1_mp2_sp2_8.orca.scfp.tmp) ****
             **** ENERGY FILE WAS UPDATED (Pb2Cl11_6NH3CH3_-1_mp2_sp2_8.orca.en.tmp) ****
----------------
ORBITAL ENERGIES
----------------

  NO   OCC          E(Eh)            E(eV) 
   0   2.0000    -102.754163     -2796.0829 
   1   2.0000    -102.742306     -2795.7603 
   2   2.0000    -102.739175     -2795.6751 
   3   2.0000    -102.737478     -2795.6289 
   4   2.0000    -102.730244     -2795.4321 
   5   2.0000    -102.730038     -2795.4264 
   6   2.0000    -102.729832     -2795.4208 
   7   2.0000    -102.729573     -2795.4138 
   8   2.0000    -102.725605     -2795.3058 
   9   2.0000    -102.711525     -2794.9227 
  10   2.0000    -102.710334     -2794.8903 
  11   2.0000     -14.844890      -403.9500 
  12   2.0000     -14.841298      -403.8523 
  13   2.0000     -14.840440      -403.8289 
  14   2.0000     -14.828952      -403.5163 
  15   2.0000     -14.828294      -403.4984 
  16   2.0000     -14.822197      -403.3325 
  17   2.0000     -10.615599      -288.8651 
  18   2.0000     -10.612606      -288.7837 
  19   2.0000     -10.610382      -288.7232 
  20   2.0000     -10.599906      -288.4381 
  21   2.0000     -10.585417      -288.0438 
  22   2.0000     -10.575627      -287.7774 
  23   2.0000      -9.761620      -265.6272 
  24   2.0000      -9.749924      -265.3089 
  25   2.0000      -9.746381      -265.2125 
  26   2.0000      -9.744175      -265.1525 
  27   2.0000      -9.737414      -264.9685 
  28   2.0000      -9.737259      -264.9643 
  29   2.0000      -9.736599      -264.9463 
  30   2.0000      -9.736314      -264.9386 
  31   2.0000      -9.732551      -264.8362 
  32   2.0000      -9.718388      -264.4508 
  33   2.0000      -9.717326      -264.4219 
  34   2.0000      -7.398419      -201.3212 
  35   2.0000      -7.397132      -201.2862 
  36   2.0000      -7.397047      -201.2839 
  37   2.0000      -7.386432      -200.9950 
  38   2.0000      -7.385830      -200.9786 
  39   2.0000      -7.385279      -200.9636 
  40   2.0000      -7.382743      -200.8946 
  41   2.0000      -7.382572      -200.8900 
  42   2.0000      -7.381866      -200.8708 
  43   2.0000      -7.381059      -200.8488 
  44   2.0000      -7.379862      -200.8163 
  45   2.0000      -7.379475      -200.8057 
  46   2.0000      -7.373702      -200.6486 
  47   2.0000      -7.373486      -200.6428 
  48   2.0000      -7.373432      -200.6413 
  49   2.0000      -7.373349      -200.6390 
  50   2.0000      -7.373336      -200.6387 
  51   2.0000      -7.373124      -200.6329 
  52   2.0000      -7.372865      -200.6258 
  53   2.0000      -7.372855      -200.6256 
  54   2.0000      -7.372393      -200.6130 
  55   2.0000      -7.372277      -200.6099 
  56   2.0000      -7.371946      -200.6009 
  57   2.0000      -7.371773      -200.5962 
  58   2.0000      -7.368964      -200.5197 
  59   2.0000      -7.368697      -200.5124 
  60   2.0000      -7.368119      -200.4967 
  61   2.0000      -7.354562      -200.1278 
  62   2.0000      -7.354514      -200.1265 
  63   2.0000      -7.354124      -200.1159 
  64   2.0000      -7.353641      -200.1027 
  65   2.0000      -7.353235      -200.0917 
  66   2.0000      -7.353183      -200.0903 
  67   2.0000      -5.712354      -155.4410 
  68   2.0000      -5.699826      -155.1001 
  69   2.0000      -3.483680       -94.7958 
  70   2.0000      -3.481983       -94.7496 
  71   2.0000      -3.481885       -94.7469 
  72   2.0000      -3.470858       -94.4468 
  73   2.0000      -3.469920       -94.4213 
  74   2.0000      -3.469393       -94.4070 
  75   2.0000      -1.027258       -27.9531 
  76   2.0000      -1.023749       -27.8576 
  77   2.0000      -1.023206       -27.8428 
  78   2.0000      -1.010049       -27.4848 
  79   2.0000      -1.009625       -27.4733 
  80   2.0000      -1.001210       -27.2443 
  81   2.0000      -0.873488       -23.7688 
  82   2.0000      -0.871417       -23.7125 
  83   2.0000      -0.870910       -23.6987 
  84   2.0000      -0.870205       -23.6795 
  85   2.0000      -0.868651       -23.6372 
  86   2.0000      -0.863038       -23.4845 
  87   2.0000      -0.861516       -23.4430 
  88   2.0000      -0.858714       -23.3668 
  89   2.0000      -0.857866       -23.3437 
  90   2.0000      -0.856992       -23.3199 
  91   2.0000      -0.778600       -21.1868 
  92   2.0000      -0.771981       -21.0067 
  93   2.0000      -0.769673       -20.9439 
  94   2.0000      -0.764557       -20.8047 
  95   2.0000      -0.756901       -20.5963 
  96   2.0000      -0.756210       -20.5775 
  97   2.0000      -0.753085       -20.4925 
  98   2.0000      -0.751394       -20.4465 
  99   2.0000      -0.750201       -20.4140 
 100   2.0000      -0.746084       -20.3020 
 101   2.0000      -0.743516       -20.2321 
 102   2.0000      -0.742502       -20.2045 
 103   2.0000      -0.741582       -20.1795 
 104   2.0000      -0.731531       -19.9060 
 105   2.0000      -0.730870       -19.8880 
 106   2.0000      -0.729044       -19.8383 
 107   2.0000      -0.718544       -19.5526 
 108   2.0000      -0.560219       -15.2443 
 109   2.0000      -0.559152       -15.2153 
 110   2.0000      -0.553540       -15.0626 
 111   2.0000      -0.553282       -15.0556 
 112   2.0000      -0.550526       -14.9806 
 113   2.0000      -0.549641       -14.9565 
 114   2.0000      -0.548102       -14.9146 
 115   2.0000      -0.544157       -14.8073 
 116   2.0000      -0.536871       -14.6090 
 117   2.0000      -0.536646       -14.6029 
 118   2.0000      -0.534762       -14.5516 
 119   2.0000      -0.525671       -14.3042 
 120   2.0000      -0.498432       -13.5630 
 121   2.0000      -0.495171       -13.4743 
 122   2.0000      -0.492840       -13.4109 
 123   2.0000      -0.480323       -13.0702 
 124   2.0000      -0.467276       -12.7152 
 125   2.0000      -0.460313       -12.5258 
 126   2.0000      -0.451045       -12.2736 
 127   2.0000      -0.436956       -11.8902 
 128   2.0000      -0.423500       -11.5240 
 129   2.0000      -0.421910       -11.4807 
 130   2.0000      -0.421664       -11.4741 
 131   2.0000      -0.418138       -11.3781 
 132   2.0000      -0.417578       -11.3629 
 133   2.0000      -0.416824       -11.3423 
 134   2.0000      -0.407400       -11.0859 
 135   2.0000      -0.405123       -11.0240 
 136   2.0000      -0.400657       -10.9024 
 137   2.0000      -0.394923       -10.7464 
 138   2.0000      -0.391036       -10.6406 
 139   2.0000      -0.384495       -10.4626 
 140   2.0000      -0.284265        -7.7352 
 141   2.0000      -0.273111        -7.4317 
 142   2.0000      -0.268666        -7.3108 
 143   2.0000      -0.263554        -7.1717 
 144   2.0000      -0.258454        -7.0329 
 145   2.0000      -0.256239        -6.9726 
 146   2.0000      -0.253555        -6.8996 
 147   2.0000      -0.249189        -6.7808 
 148   2.0000      -0.246442        -6.7060 
 149   2.0000      -0.242797        -6.6068 
 150   2.0000      -0.241801        -6.5797 
 151   2.0000      -0.240183        -6.5357 
 152   2.0000      -0.239180        -6.5084 
 153   2.0000      -0.237125        -6.4525 
 154   2.0000      -0.236197        -6.4272 
 155   2.0000      -0.233656        -6.3581 
 156   2.0000      -0.232543        -6.3278 
 157   2.0000      -0.230714        -6.2780 
 158   2.0000      -0.229804        -6.2533 
 159   2.0000      -0.228019        -6.2047 
 160   2.0000      -0.227265        -6.1842 
 161   2.0000      -0.226955        -6.1758 
 162   2.0000      -0.225263        -6.1297 
 163   2.0000      -0.224137        -6.0991 
 164   2.0000      -0.223265        -6.0754 
 165   2.0000      -0.218914        -5.9569 
 166   2.0000      -0.216293        -5.8856 
 167   2.0000      -0.215731        -5.8703 
 168   2.0000      -0.213296        -5.8041 
 169   2.0000      -0.212884        -5.7929 
 170   2.0000      -0.207084        -5.6350 
 171   2.0000      -0.194954        -5.3050 
 172   2.0000      -0.183508        -4.9935 
 173   0.0000       0.092014         2.5038 
 174   0.0000       0.108552         2.9538 
 175   0.0000       0.120057         3.2669 
 176   0.0000       0.123437         3.3589 
 177   0.0000       0.124126         3.3776 
 178   0.0000       0.127570         3.4714 
 179   0.0000       0.130243         3.5441 
 180   0.0000       0.132929         3.6172 
 181   0.0000       0.140154         3.8138 
 182   0.0000       0.142764         3.8848 
 183   0.0000       0.163223         4.4415 
 184   0.0000       0.170649         4.6436 
 185   0.0000       0.180021         4.8986 
 186   0.0000       0.182226         4.9586 
 187   0.0000       0.184387         5.0174 
 188   0.0000       0.190013         5.1705 
 189   0.0000       0.194407         5.2901 
 190   0.0000       0.196854         5.3567 
 191   0.0000       0.198910         5.4126 
 192   0.0000       0.200053         5.4437 
 193   0.0000       0.201682         5.4880 
 194   0.0000       0.205110         5.5813 
 195   0.0000       0.209206         5.6928 
 196   0.0000       0.210827         5.7369 
 197   0.0000       0.214146         5.8272 
 198   0.0000       0.223427         6.0798 
 199   0.0000       0.228170         6.2088 
 200   0.0000       0.234879         6.3914 
 201   0.0000       0.236658         6.4398 
 202   0.0000       0.240126         6.5341 
 203   0.0000       0.246147         6.6980 
 204   0.0000       0.248336         6.7576 
 205   0.0000       0.250373         6.8130 
 206   0.0000       0.254636         6.9290 
 207   0.0000       0.257725         7.0131 
 208   0.0000       0.260107         7.0779 
 209   0.0000       0.264812         7.2059 
 210   0.0000       0.269280         7.3275 
 211   0.0000       0.271473         7.3872 
 212   0.0000       0.273878         7.4526 
 213   0.0000       0.275144         7.4871 
 214   0.0000       0.281069         7.6483 
 215   0.0000       0.285043         7.7564 
 216   0.0000       0.288177         7.8417 
 217   0.0000       0.289799         7.8858 
 218   0.0000       0.293428         7.9846 
 219   0.0000       0.296369         8.0646 
 220   0.0000       0.298894         8.1333 
 221   0.0000       0.302448         8.2300 
 222   0.0000       0.306939         8.3522 
 223   0.0000       0.313023         8.5178 
 224   0.0000       0.316980         8.6255 
 225   0.0000       0.321102         8.7376 
 226   0.0000       0.329721         8.9722 
 227   0.0000       0.338406         9.2085 
 228   0.0000       0.342450         9.3185 
 229   0.0000       0.343021         9.3341 
 230   0.0000       0.347898         9.4668 
 231   0.0000       0.350221         9.5300 
 232   0.0000       0.353217         9.6115 
 233   0.0000       0.358004         9.7418 
 234   0.0000       0.359884         9.7929 
 235   0.0000       0.362140         9.8543 
 236   0.0000       0.365344         9.9415 
 237   0.0000       0.366771         9.9803 
 238   0.0000       0.368686        10.0324 
 239   0.0000       0.370119        10.0714 
 240   0.0000       0.372274        10.1301 
 241   0.0000       0.374894        10.2014 
 242   0.0000       0.379301        10.3213 
 243   0.0000       0.381120        10.3708 
 244   0.0000       0.385029        10.4772 
 245   0.0000       0.389881        10.6092 
 246   0.0000       0.392118        10.6701 
 247   0.0000       0.395673        10.7668 
 248   0.0000       0.400755        10.9051 
 249   0.0000       0.403598        10.9824 
 250   0.0000       0.405444        11.0327 
 251   0.0000       0.411703        11.2030 
 252   0.0000       0.417094        11.3497 
 253   0.0000       0.424251        11.5445 
 254   0.0000       0.425156        11.5691 
 255   0.0000       0.428808        11.6685 
 256   0.0000       0.433994        11.8096 
 257   0.0000       0.438152        11.9227 
 258   0.0000       0.440551        11.9880 
 259   0.0000       0.451481        12.2854 
 260   0.0000       0.463213        12.6047 
 261   0.0000       0.464353        12.6357 
 262   0.0000       0.468132        12.7385 
 263   0.0000       0.472433        12.8556 
 264   0.0000       0.474096        12.9008 
 265   0.0000       0.477309        12.9883 
 266   0.0000       0.483661        13.1611 
 267   0.0000       0.485372        13.2076 
 268   0.0000       0.492258        13.3950 
 269   0.0000       0.493780        13.4364 
 270   0.0000       0.497055        13.5256 
 271   0.0000       0.500786        13.6271 
 272   0.0000       0.505699        13.7608 
 273   0.0000       0.507621        13.8131 
 274   0.0000       0.510752        13.8983 
 275   0.0000       0.516992        14.0681 
 276   0.0000       0.519978        14.1493 
 277   0.0000       0.524325        14.2676 
 278   0.0000       0.528036        14.3686 
 279   0.0000       0.530827        14.4445 
 280   0.0000       0.536877        14.6092 
 281   0.0000       0.537459        14.6250 
 282   0.0000       0.543002        14.7758 
 283   0.0000       0.548666        14.9300 
 284   0.0000       0.551458        15.0059 
 285   0.0000       0.553617        15.0647 
 286   0.0000       0.557572        15.1723 
 287   0.0000       0.559864        15.2347 
 288   0.0000       0.560655        15.2562 
 289   0.0000       0.563186        15.3251 
 290   0.0000       0.563720        15.3396 
 291   0.0000       0.565375        15.3846 
 292   0.0000       0.568690        15.4748 
 293   0.0000       0.569787        15.5047 
 294   0.0000       0.572581        15.5807 
 295   0.0000       0.573267        15.5994 
 296   0.0000       0.576583        15.6896 
 297   0.0000       0.579111        15.7584 
 298   0.0000       0.581449        15.8220 
 299   0.0000       0.581705        15.8290 
 300   0.0000       0.584888        15.9156 
 301   0.0000       0.587255        15.9800 
 302   0.0000       0.590264        16.0619 
 303   0.0000       0.590828        16.0772 
 304   0.0000       0.593076        16.1384 
 305   0.0000       0.597009        16.2454 
 306   0.0000       0.599055        16.3011 
 307   0.0000       0.600427        16.3385 
 308   0.0000       0.601915        16.3789 
 309   0.0000       0.604274        16.4431 
 310   0.0000       0.608257        16.5515 
 311   0.0000       0.609599        16.5880 
 312   0.0000       0.610597        16.6152 
 313   0.0000       0.612668        16.6716 
 314   0.0000       0.615915        16.7599 
 315   0.0000       0.616684        16.7808 
 316   0.0000       0.622136        16.9292 
 317   0.0000       0.622688        16.9442 
 318   0.0000       0.626328        17.0433 
 319   0.0000       0.629476        17.1289 
 320   0.0000       0.632007        17.1978 
 321   0.0000       0.634349        17.2615 
 322   0.0000       0.636878        17.3303 
 323   0.0000       0.638721        17.3805 
 324   0.0000       0.642489        17.4830 
 325   0.0000       0.643540        17.5116 
 326   0.0000       0.646889        17.6027 
 327   0.0000       0.648234        17.6394 
 328   0.0000       0.649590        17.6763 
 329   0.0000       0.655058        17.8250 
 330   0.0000       0.655695        17.8424 
 331   0.0000       0.658983        17.9318 
 332   0.0000       0.659444        17.9444 
 333   0.0000       0.662278        18.0215 
 334   0.0000       0.663554        18.0562 
 335   0.0000       0.664543        18.0831 
 336   0.0000       0.669508        18.2182 
 337   0.0000       0.673385        18.3237 
 338   0.0000       0.674031        18.3413 
 339   0.0000       0.679076        18.4786 
 340   0.0000       0.679394        18.4872 
 341   0.0000       0.683281        18.5930 
 342   0.0000       0.685353        18.6494 
 343   0.0000       0.689433        18.7604 
 344   0.0000       0.692421        18.8417 
 345   0.0000       0.693438        18.8694 
 346   0.0000       0.694172        18.8894 
 347   0.0000       0.698328        19.0025 
 348   0.0000       0.700951        19.0738 
 349   0.0000       0.705100        19.1868 
 350   0.0000       0.707854        19.2617 
 351   0.0000       0.710821        19.3424 
 352   0.0000       0.715541        19.4709 
 353   0.0000       0.717934        19.5360 
 354   0.0000       0.720504        19.6059 
 355   0.0000       0.724545        19.7159 
 356   0.0000       0.727886        19.8068 
 357   0.0000       0.730644        19.8818 
 358   0.0000       0.734206        19.9788 
 359   0.0000       0.739004        20.1093 
 360   0.0000       0.741939        20.1892 
 361   0.0000       0.744612        20.2619 
 362   0.0000       0.749212        20.3871 
 363   0.0000       0.752530        20.4774 
 364   0.0000       0.758092        20.6287 
 365   0.0000       0.760895        20.7050 
 366   0.0000       0.764984        20.8163 
 367   0.0000       0.768099        20.9010 
 368   0.0000       0.771420        20.9914 
 369   0.0000       0.779312        21.2062 
 370   0.0000       0.783831        21.3291 
 371   0.0000       0.786200        21.3936 
 372   0.0000       0.790245        21.5037 
 373   0.0000       0.791089        21.5266 
 374   0.0000       0.795461        21.6456 
 375   0.0000       0.797797        21.7092 
 376   0.0000       0.802872        21.8473 
 377   0.0000       0.805273        21.9126 
 378   0.0000       0.806213        21.9382 
 379   0.0000       0.808769        22.0077 
 380   0.0000       0.811810        22.0905 
 381   0.0000       0.815781        22.1985 
 382   0.0000       0.819533        22.3006 
 383   0.0000       0.822038        22.3688 
 384   0.0000       0.823892        22.4193 
 385   0.0000       0.826479        22.4896 
 386   0.0000       0.829619        22.5751 
 387   0.0000       0.830286        22.5932 
 388   0.0000       0.833408        22.6782 
 389   0.0000       0.835597        22.7378 
 390   0.0000       0.839595        22.8465 
 391   0.0000       0.840998        22.8847 
 392   0.0000       0.845690        23.0124 
 393   0.0000       0.847693        23.0669 
 394   0.0000       0.853748        23.2317 
 395   0.0000       0.856541        23.3077 
 396   0.0000       0.864692        23.5295 
 397   0.0000       0.871439        23.7131 
 398   0.0000       0.872216        23.7342 
 399   0.0000       0.875116        23.8131 
 400   0.0000       0.882210        24.0062 
 401   0.0000       0.886254        24.1162 
 402   0.0000       0.889807        24.2129 
 403   0.0000       0.891718        24.2649 
 404   0.0000       0.895589        24.3702 
 405   0.0000       0.899931        24.4884 
 406   0.0000       0.901126        24.5209 
 407   0.0000       0.902749        24.5651 
 408   0.0000       0.908216        24.7138 
 409   0.0000       0.909624        24.7521 
 410   0.0000       0.919065        25.0090 
 411   0.0000       0.923345        25.1255 
 412   0.0000       0.925755        25.1911 
 413   0.0000       0.933309        25.3966 
 414   0.0000       0.934672        25.4337 
 415   0.0000       0.942632        25.6503 
 416   0.0000       0.947607        25.7857 
 417   0.0000       0.950871        25.8745 
 418   0.0000       0.954656        25.9775 
 419   0.0000       0.959101        26.0985 
 420   0.0000       0.963622        26.2215 
 421   0.0000       0.968995        26.3677 
 422   0.0000       0.975795        26.5527 
 423   0.0000       0.981835        26.7171 
 424   0.0000       0.983360        26.7586 
 425   0.0000       0.985972        26.8297 
 426   0.0000       0.996373        27.1127 
 427   0.0000       0.999349        27.1937 
 428   0.0000       1.002485        27.2790 
 429   0.0000       1.007437        27.4138 
 430   0.0000       1.010707        27.5027 
 431   0.0000       1.015386        27.6301 
 432   0.0000       1.018791        27.7227 
 433   0.0000       1.021113        27.7859 
 434   0.0000       1.022930        27.8353 
 435   0.0000       1.028269        27.9806 
 436   0.0000       1.031706        28.0742 
 437   0.0000       1.034426        28.1482 
 438   0.0000       1.035297        28.1719 
 439   0.0000       1.043776        28.4026 
 440   0.0000       1.047556        28.5055 
 441   0.0000       1.050930        28.5973 
 442   0.0000       1.053114        28.6567 
 443   0.0000       1.062991        28.9255 
 444   0.0000       1.065997        29.0072 
 445   0.0000       1.068215        29.0676 
 446   0.0000       1.079286        29.3689 
 447   0.0000       1.085818        29.5466 
 448   0.0000       1.092054        29.7163 
 449   0.0000       1.096252        29.8305 
 450   0.0000       1.117798        30.4168 
 451   0.0000       1.129564        30.7370 
 452   0.0000       1.144570        31.1453 
 453   0.0000       1.154627        31.4190 
 454   0.0000       1.157626        31.5006 
 455   0.0000       1.163423        31.6583 
 456   0.0000       1.169689        31.8289 
 457   0.0000       1.175052        31.9748 
 458   0.0000       1.184029        32.2191 
 459   0.0000       1.195440        32.5296 
 460   0.0000       1.203601        32.7517 
 461   0.0000       1.208376        32.8816 
 462   0.0000       1.211499        32.9666 
 463   0.0000       1.217598        33.1325 
 464   0.0000       1.249510        34.0009 
 465   0.0000       1.255839        34.1731 
 466   0.0000       1.276908        34.7464 
 467   0.0000       1.278640        34.7936 
 468   0.0000       1.286278        35.0014 
 469   0.0000       1.295901        35.2633 
 470   0.0000       1.297621        35.3101 
 471   0.0000       1.303657        35.4743 
 472   0.0000       1.309195        35.6250 
 473   0.0000       1.311015        35.6745 
 474   0.0000       1.311820        35.6964 
 475   0.0000       1.322213        35.9792 
 476   0.0000       1.323457        36.0131 
 477   0.0000       1.333988        36.2997 
 478   0.0000       1.338080        36.4110 
 479   0.0000       1.341732        36.5104 
 480   0.0000       1.352584        36.8057 
 481   0.0000       1.354153        36.8484 
 482   0.0000       1.357456        36.9383 
 483   0.0000       1.371592        37.3229 
 484   0.0000       1.374275        37.3959 
 485   0.0000       1.377123        37.4734 
 486   0.0000       1.393955        37.9314 
 487   0.0000       1.406717        38.2787 
 488   0.0000       1.411848        38.4183 
 489   0.0000       1.430520        38.9264 
 490   0.0000       1.445861        39.3439 
 491   0.0000       1.455733        39.6125 
 492   0.0000       1.464153        39.8416 
 493   0.0000       1.478283        40.2261 
 494   0.0000       1.492878        40.6233 
 495   0.0000       1.499724        40.8096 
 496   0.0000       1.520716        41.3808 
 497   0.0000       1.523198        41.4483 
 498   0.0000       1.526673        41.5429 
 499   0.0000       1.540634        41.9228 
 500   0.0000       1.544430        42.0261 
 501   0.0000       1.556487        42.3542 
 502   0.0000       1.561153        42.4811 
 503   0.0000       1.566913        42.6379 
 504   0.0000       1.596686        43.4480 
 505   0.0000       1.598061        43.4855 
 506   0.0000       1.605088        43.6767 
 507   0.0000       1.609316        43.7917 
 508   0.0000       1.614476        43.9321 
 509   0.0000       1.626700        44.2648 
 510   0.0000       1.640494        44.6401 
 511   0.0000       1.649707        44.8908 
 512   0.0000       1.656380        45.0724 
 513   0.0000       1.659726        45.1634 
 514   0.0000       1.661927        45.2233 
 515   0.0000       1.671890        45.4944 
 516   0.0000       1.681788        45.7638 
 517   0.0000       1.683263        45.8039 
 518   0.0000       1.688331        45.9418 
 519   0.0000       1.690242        45.9938 
 520   0.0000       1.694505        46.1098 
 521   0.0000       1.696176        46.1553 
 522   0.0000       1.701236        46.2930 
 523   0.0000       1.702922        46.3389 
 524   0.0000       1.705401        46.4063 
 525   0.0000       1.708244        46.4837 
 526   0.0000       1.712638        46.6033 
 527   0.0000       1.714934        46.6657 
 528   0.0000       1.717900        46.7464 
 529   0.0000       1.721186        46.8358 
 530   0.0000       1.725732        46.9596 
 531   0.0000       1.727463        47.0067 
 532   0.0000       1.729835        47.0712 
 533   0.0000       1.733826        47.1798 
 534   0.0000       1.736923        47.2641 
 535   0.0000       1.737953        47.2921 
 536   0.0000       1.746373        47.5212 
 537   0.0000       1.748232        47.5718 
 538   0.0000       1.752439        47.6863 
 539   0.0000       1.756147        47.7872 
 540   0.0000       1.790782        48.7297 
 541   0.0000       1.796641        48.8891 
 542   0.0000       1.852528        50.4099 
 543   0.0000       1.857055        50.5330 
 544   0.0000       1.863647        50.7124 
 545   0.0000       1.868052        50.8323 
 546   0.0000       1.874287        51.0019 
 547   0.0000       1.879598        51.1465 
 548   0.0000       1.887253        51.3548 
 549   0.0000       1.891567        51.4722 
 550   0.0000       1.896818        51.6150 
 551   0.0000       1.898303        51.6555 
 552   0.0000       1.905659        51.8556 
 553   0.0000       1.919377        52.2289 
 554   0.0000       1.926852        52.4323 
 555   0.0000       1.930999        52.5452 
 556   0.0000       1.938106        52.7385 
 557   0.0000       1.946921        52.9784 
 558   0.0000       1.948729        53.0276 
 559   0.0000       1.953138        53.1476 
 560   0.0000       1.989744        54.1437 
 561   0.0000       1.991647        54.1955 
 562   0.0000       1.994458        54.2720 
 563   0.0000       1.995665        54.3048 
 564   0.0000       1.997069        54.3430 
 565   0.0000       1.998580        54.3841 
 566   0.0000       2.003293        54.5124 
 567   0.0000       2.008458        54.6529 
 568   0.0000       2.011262        54.7292 
 569   0.0000       2.017131        54.8889 
 570   0.0000       2.023399        55.0595 
 571   0.0000       2.024048        55.0771 
 572   0.0000       2.028180        55.1896 
 573   0.0000       2.029859        55.2353 
 574   0.0000       2.030449        55.2513 
 575   0.0000       2.035575        55.3908 
 576   0.0000       2.037350        55.4391 
 577   0.0000       2.038977        55.4834 
 578   0.0000       2.042238        55.5721 
 579   0.0000       2.044974        55.6466 
 580   0.0000       2.047744        55.7220 
 581   0.0000       2.054266        55.8994 
 582   0.0000       2.056086        55.9489 
 583   0.0000       2.059878        56.0521 
 584   0.0000       2.065248        56.1983 
 585   0.0000       2.067556        56.2611 
 586   0.0000       2.071355        56.3644 
 587   0.0000       2.072976        56.4085 
 588   0.0000       2.074500        56.4500 
 589   0.0000       2.077068        56.5199 
 590   0.0000       2.078477        56.5582 
 591   0.0000       2.080661        56.6177 
 592   0.0000       2.081899        56.6513 
 593   0.0000       2.082611        56.6707 
 594   0.0000       2.087970        56.8166 
 595   0.0000       2.091761        56.9197 
 596   0.0000       2.093653        56.9712 
 597   0.0000       2.095075        57.0099 
 598   0.0000       2.097368        57.0723 
 599   0.0000       2.099747        57.1370 
 600   0.0000       2.103389        57.2361 
 601   0.0000       2.104951        57.2786 
 602   0.0000       2.109152        57.3929 
 603   0.0000       2.112178        57.4753 
 604   0.0000       2.116433        57.5911 
 605   0.0000       2.123757        57.7904 
 606   0.0000       2.126638        57.8688 
 607   0.0000       2.130408        57.9714 
 608   0.0000       2.135004        58.0964 
 609   0.0000       2.140641        58.2498 
 610   0.0000       2.145120        58.3717 
 611   0.0000       2.147872        58.4466 
 612   0.0000       2.148758        58.4707 
 613   0.0000       2.155244        58.6472 
 614   0.0000       2.162855        58.8543 
 615   0.0000       2.164156        58.8897 
 616   0.0000       2.165180        58.9175 
 617   0.0000       2.166901        58.9644 
 618   0.0000       2.171625        59.0929 
 619   0.0000       2.176249        59.2188 
 620   0.0000       2.178847        59.2894 
 621   0.0000       2.182338        59.3844 
 622   0.0000       2.183628        59.4195 
 623   0.0000       2.186166        59.4886 
 624   0.0000       2.187707        59.5305 
 625   0.0000       2.192130        59.6509 
 626   0.0000       2.196455        59.7686 
 627   0.0000       2.201391        59.9029 
 628   0.0000       2.202349        59.9290 
 629   0.0000       2.206838        60.0511 
 630   0.0000       2.212019        60.1921 
 631   0.0000       2.214240        60.2525 
 632   0.0000       2.217119        60.3309 
 633   0.0000       2.219263        60.3892 
 634   0.0000       2.225559        60.5605 
 635   0.0000       2.229021        60.6548 
 636   0.0000       2.232286        60.7436 
 637   0.0000       2.239501        60.9399 
 638   0.0000       2.242084        61.0102 
 639   0.0000       2.247749        61.1644 
 640   0.0000       2.253344        61.3166 
 641   0.0000       2.256597        61.4051 
 642   0.0000       2.259316        61.4791 
 643   0.0000       2.263348        61.5888 
 644   0.0000       2.266467        61.6737 
 645   0.0000       2.270654        61.7876 
 646   0.0000       2.274285        61.8864 
 647   0.0000       2.276325        61.9420 
 648   0.0000       2.280578        62.0577 
 649   0.0000       2.284486        62.1640 
 650   0.0000       2.288078        62.2618 
 651   0.0000       2.290347        62.3235 
 652   0.0000       2.293650        62.4134 
 653   0.0000       2.294593        62.4391 
 654   0.0000       2.297977        62.5311 
 655   0.0000       2.302219        62.6466 
 656   0.0000       2.308639        62.8213 
 657   0.0000       2.310722        62.8779 
 658   0.0000       2.314169        62.9717 
 659   0.0000       2.315126        62.9978 
 660   0.0000       2.317045        63.0500 
 661   0.0000       2.318895        63.1003 
 662   0.0000       2.321405        63.1687 
 663   0.0000       2.324195        63.2446 
 664   0.0000       2.328397        63.3589 
 665   0.0000       2.332134        63.4606 
 666   0.0000       2.332949        63.4828 
 667   0.0000       2.334729        63.5312 
 668   0.0000       2.340900        63.6991 
 669   0.0000       2.343019        63.7568 
 670   0.0000       2.347570        63.8806 
 671   0.0000       2.349677        63.9380 
 672   0.0000       2.352668        64.0193 
 673   0.0000       2.353504        64.0421 
 674   0.0000       2.355094        64.0854 
 675   0.0000       2.356687        64.1287 
 676   0.0000       2.357861        64.1607 
 677   0.0000       2.360610        64.2355 
 678   0.0000       2.362191        64.2785 
 679   0.0000       2.363560        64.3157 
 680   0.0000       2.364841        64.3506 
 681   0.0000       2.365923        64.3800 
 682   0.0000       2.366666        64.4003 
 683   0.0000       2.368099        64.4392 
 684   0.0000       2.368507        64.4503 
 685   0.0000       2.370557        64.5061 
 686   0.0000       2.372469        64.5582 
 687   0.0000       2.373791        64.5941 
 688   0.0000       2.376327        64.6631 
 689   0.0000       2.378171        64.7133 
 690   0.0000       2.379722        64.7555 
 691   0.0000       2.381369        64.8003 
 692   0.0000       2.382560        64.8328 
 693   0.0000       2.383476        64.8577 
 694   0.0000       2.384989        64.8988 
 695   0.0000       2.386937        64.9519 
 696   0.0000       2.387451        64.9658 
 697   0.0000       2.388012        64.9811 
 698   0.0000       2.389054        65.0095 
 699   0.0000       2.390639        65.0526 
 700   0.0000       2.392510        65.1035 
 701   0.0000       2.394393        65.1547 
 702   0.0000       2.397581        65.2415 
 703   0.0000       2.397936        65.2511 
 704   0.0000       2.399658        65.2980 
 705   0.0000       2.402422        65.3732 
 706   0.0000       2.403831        65.4116 
 707   0.0000       2.408882        65.5490 
 708   0.0000       2.412238        65.6403 
 709   0.0000       2.417934        65.7953 
 710   0.0000       2.419731        65.8442 
 711   0.0000       2.423642        65.9507 
 712   0.0000       2.425134        65.9913 
 713   0.0000       2.428664        66.0873 
 714   0.0000       2.431397        66.1617 
 715   0.0000       2.434386        66.2430 
 716   0.0000       2.436186        66.2920 
 717   0.0000       2.439904        66.3932 
 718   0.0000       2.442665        66.4683 
 719   0.0000       2.445932        66.5572 
 720   0.0000       2.448884        66.6375 
 721   0.0000       2.453071        66.7515 
 722   0.0000       2.454478        66.7898 
 723   0.0000       2.457415        66.8697 
 724   0.0000       2.458011        66.8859 
 725   0.0000       2.460666        66.9581 
 726   0.0000       2.464711        67.0682 
 727   0.0000       2.467065        67.1322 
 728   0.0000       2.469337        67.1941 
 729   0.0000       2.472792        67.2881 
 730   0.0000       2.477452        67.4149 
 731   0.0000       2.485302        67.6285 
 732   0.0000       2.487084        67.6770 
 733   0.0000       2.490216        67.7622 
 734   0.0000       2.491690        67.8023 
 735   0.0000       2.493199        67.8434 
 736   0.0000       2.494351        67.8748 
 737   0.0000       2.500053        68.0299 
 738   0.0000       2.503023        68.1107 
 739   0.0000       2.503870        68.1338 
 740   0.0000       2.506630        68.2089 
 741   0.0000       2.508597        68.2624 
 742   0.0000       2.509492        68.2867 
 743   0.0000       2.511469        68.3405 
 744   0.0000       2.513203        68.3877 
 745   0.0000       2.517990        68.5180 
 746   0.0000       2.521981        68.6266 
 747   0.0000       2.522075        68.6291 
 748   0.0000       2.527769        68.7841 
 749   0.0000       2.531662        68.8900 
 750   0.0000       2.538562        69.0778 
[...]
      f+2     :     0.006742
      f-2     :     0.005595
      f+3     :     0.003317
      f-3     :     0.002313
 48 H s       :     0.821288  s :     0.821288
      pz      :     0.012230  p :     0.061061
      px      :     0.021589
      py      :     0.027242
 49 N s       :     3.008681  s :     3.008681
      pz      :     1.242418  p :     3.766057
      px      :     1.263749
      py      :     1.259890
      dz2     :     0.031345  d :     0.154735
      dxz     :     0.041403
      dyz     :     0.034777
      dx2y2   :     0.008655
      dxy     :     0.038554
      f0      :     0.002215  f :     0.009620
      f+1     :     0.001249
      f-1     :     0.001234
      f+2     :     0.001523
      f-2     :     0.001519
      f+3     :     0.001145
      f-3     :     0.000735
 50 H s       :     0.719294  s :     0.719294
      pz      :     0.018973  p :     0.136711
      px      :     0.046281
      py      :     0.071457
 51 H s       :     0.820085  s :     0.820085
      pz      :     0.021617  p :     0.061210
      px      :     0.024275
      py      :     0.015318
 52 H s       :     0.722537  s :     0.722537
      pz      :     0.036436  p :     0.125255
      px      :     0.043454
      py      :     0.045365
 53 H s       :     0.821545  s :     0.821545
      pz      :     0.023337  p :     0.061043
      px      :     0.014297
      py      :     0.023410
 54 H s       :     0.723064  s :     0.723064
      pz      :     0.038857  p :     0.124968
      px      :     0.042417
      py      :     0.043694
 55 C s       :     2.850927  s :     2.850927
      pz      :     1.046394  p :     3.092491
      px      :     0.985066
      py      :     1.061031
      dz2     :     0.030260  d :     0.317269
      dxz     :     0.083542
      dyz     :     0.078933
      dx2y2   :     0.043695
      dxy     :     0.080841
      f0      :     0.004787  f :     0.038249
      f+1     :     0.007334
      f-1     :     0.003115
      f+2     :     0.004461
      f-2     :     0.006452
      f+3     :     0.007124
      f-3     :     0.004977
 56 H s       :     0.822016  s :     0.822016
      pz      :     0.022218  p :     0.061066
      px      :     0.020738
      py      :     0.018110
 57 N s       :     3.008375  s :     3.008375
      pz      :     1.261080  p :     3.763606
      px      :     1.246266
      py      :     1.256259
      dz2     :     0.014495  d :     0.153743
      dxz     :     0.038345
      dyz     :     0.040355
      dx2y2   :     0.021608
      dxy     :     0.038940
      f0      :     0.001285  f :     0.009562
      f+1     :     0.001654
      f-1     :     0.000902
      f+2     :     0.001064
      f-2     :     0.001714
      f+3     :     0.001854
      f-3     :     0.001089
 58 H s       :     0.718953  s :     0.718953
      pz      :     0.043496  p :     0.140142
      px      :     0.050393
      py      :     0.046253
 59 H s       :     0.820157  s :     0.820157
      pz      :     0.018405  p :     0.061108
      px      :     0.017905
      py      :     0.024798
 60 H s       :     0.720745  s :     0.720745
      pz      :     0.050830  p :     0.131878
      px      :     0.022375
      py      :     0.058674


                      *****************************
                      * MAYER POPULATION ANALYSIS *
                      *****************************

  NA   - Mulliken gross atomic population
  ZA   - Total nuclear charge
  QA   - Mulliken gross atomic charge
  VA   - Mayer's total valence
  BVA  - Mayer's bonded valence
  FA   - Mayer's free valence

  ATOM       NA         ZA         QA         VA         BVA        FA
  0 C      6.2513     6.0000    -0.2513     3.8913     3.8913     0.0000
  1 N      7.2899     7.0000    -0.2899     3.2272     3.2272     0.0000
  2 H      0.8622     1.0000     0.1378     0.9647     0.9647     0.0000
  3 H      0.8591     1.0000     0.1409     0.9645     0.9645    -0.0000
  4 H      0.8601     1.0000     0.1399     0.9635     0.9635     0.0000
  5 H      0.7283     1.0000     0.2717     1.0096     1.0096     0.0000
  6 H      0.7362     1.0000     0.2638     1.0125     1.0125     0.0000
  7 H      0.7147     1.0000     0.2853     0.9898     0.9898     0.0000
  8 Pb    21.0020    22.0000     0.9980     1.7267     1.7267    -0.0000
  9 Cl    17.6165    17.0000    -0.6165     0.6866     0.6866    -0.0000
 10 Cl    17.7080    17.0000    -0.7080     0.5268     0.5268     0.0000
 11 Cl    17.6527    17.0000    -0.6527     0.6241     0.6241     0.0000
 12 Cl    17.6902    17.0000    -0.6902     0.5623     0.5623     0.0000
 13 Cl    17.6579    17.0000    -0.6579     0.6211     0.6211     0.0000
 14 Cl    17.6034    17.0000    -0.6034     0.6951     0.6951    -0.0000
 15 N      7.2783     7.0000    -0.2783     3.3621     3.3621    -0.0000
 16 C      6.2416     6.0000    -0.2416     3.8552     3.8552    -0.0000
 17 H      0.7181     1.0000     0.2819     0.9975     0.9975    -0.0000
 18 H      0.6970     1.0000     0.3030     0.9583     0.9583    -0.0000
 19 H      0.8549     1.0000     0.1451     0.9781     0.9781    -0.0000
 20 H      0.8631     1.0000     0.1369     0.9993     0.9993     0.0000
 21 H      0.8777     1.0000     0.1223     0.9729     0.9729     0.0000
 22 H      0.7096     1.0000     0.2904     0.9477     0.9477     0.0000
 23 Cl    17.6838    17.0000    -0.6838     0.5772     0.5772    -0.0000
 24 Cl    17.7112    17.0000    -0.7112     0.5278     0.5278     0.0000
 25 Pb    21.0158    22.0000     0.9842     1.7423     1.7423    -0.0000
 26 N      7.2769     7.0000    -0.2769     3.3643     3.3643    -0.0000
 27 C      6.2340     6.0000    -0.2340     3.8423     3.8423     0.0000
 28 H      0.7053     1.0000     0.2947     0.9746     0.9746    -0.0000
 29 H      0.7011     1.0000     0.2989     0.9363     0.9363    -0.0000
 30 H      0.8797     1.0000     0.1203     0.9710     0.9710    -0.0000
 31 H      0.8543     1.0000     0.1457     0.9794     0.9794    -0.0000
 32 H      0.8641     1.0000     0.1359     1.0051     1.0051     0.0000
 33 H      0.7275     1.0000     0.2725     1.0049     1.0049     0.0000
 34 Cl    17.5993    17.0000    -0.5993     0.7101     0.7101     0.0000
 35 H      0.8649     1.0000     0.1351     0.9643     0.9643    -0.0000
 36 H      0.7357     1.0000     0.2643     1.0046     1.0046    -0.0000
 37 H      0.8583     1.0000     0.1417     0.9633     0.9633    -0.0000
 38 C      6.2502     6.0000    -0.2502     3.8877     3.8877    -0.0000
 39 N      7.2945     7.0000    -0.2945     3.2265     3.2265    -0.0000
 40 Cl    17.6325    17.0000    -0.6325     0.6522     0.6522    -0.0000
 41 H      0.7160     1.0000     0.2840     0.9976     0.9976    -0.0000
 42 H      0.7211     1.0000     0.2789     1.0011     1.0011    -0.0000
 43 H      0.8566     1.0000     0.1434     0.9646     0.9646    -0.0000
 44 Cl    17.7215    17.0000    -0.7215     0.5033     0.5033    -0.0000
 45 H      0.8621     1.0000     0.1379     0.9707     0.9707     0.0000
 46 H      0.7240     1.0000     0.2760     1.0069     1.0069    -0.0000
 47 C      6.2458     6.0000    -0.2458     3.8907     3.8907     0.0000
 48 H      0.8622     1.0000     0.1378     0.9642     0.9642     0.0000
 49 N      7.2884     7.0000    -0.2884     3.2060     3.2060     0.0000
 50 H      0.7386     1.0000     0.2614     1.0266     1.0266     0.0000
 51 H      0.8598     1.0000     0.1402     0.9648     0.9648    -0.0000
 52 H      0.7261     1.0000     0.2739     0.9881     0.9881     0.0000
 53 H      0.8637     1.0000     0.1363     0.9650     0.9650    -0.0000
 54 H      0.7276     1.0000     0.2724     0.9914     0.9914    -0.0000
 55 C      6.2428     6.0000    -0.2428     3.8921     3.8921    -0.0000
 56 H      0.8641     1.0000     0.1359     0.9643     0.9643     0.0000
 57 N      7.2809     7.0000    -0.2809     3.2024     3.2024     0.0000
 58 H      0.7283     1.0000     0.2717     1.0212     1.0212     0.0000
 59 H      0.8637     1.0000     0.1363     0.9711     0.9711    -0.0000
 60 H      0.7447     1.0000     0.2553     1.0339     1.0339     0.0000

  Mayer bond orders larger than 0.1
B(  0-C ,  1-N ) :   0.9344 B(  0-C ,  2-H ) :   0.9748 B(  0-C ,  3-H ) :   0.9746 
B(  0-C ,  4-H ) :   0.9744 B(  1-N ,  5-H ) :   0.7884 B(  1-N ,  6-H ) :   0.8114 
B(  1-N ,  7-H ) :   0.7971 B(  5-H , 11-Cl) :   0.2230 B(  6-H ,  9-Cl) :   0.1981 
B(  7-H , 10-Cl) :   0.1873 B(  8-Pb,  9-Cl) :   0.4616 B(  8-Pb, 10-Cl) :   0.2015 
B(  8-Pb, 11-Cl) :   0.3716 B(  8-Pb, 12-Cl) :   0.1629 B(  8-Pb, 13-Cl) :   0.2702 
B(  8-Pb, 14-Cl) :   0.2498 B( 10-Cl, 52-H ) :   0.1597 B( 12-Cl, 17-H ) :   0.2049 
B( 12-Cl, 46-H ) :   0.2280 B( 13-Cl, 18-H ) :   0.1326 B( 13-Cl, 50-H ) :   0.2433 
B( 14-Cl, 25-Pb) :   0.3305 B( 15-N , 16-C ) :   0.9329 B( 15-N , 17-H ) :   0.7900 
B( 15-N , 18-H ) :   0.8208 B( 15-N , 22-H ) :   0.8711 B( 16-C , 19-H ) :   0.9709 
B( 16-C , 20-H ) :   0.9680 B( 16-C , 21-H ) :   0.9710 B( 23-Cl, 25-Pb) :   0.2151 
B( 23-Cl, 28-H ) :   0.1540 B( 23-Cl, 60-H ) :   0.2383 B( 24-Cl, 25-Pb) :   0.1238 
B( 24-Cl, 33-H ) :   0.1957 B( 24-Cl, 58-H ) :   0.2483 B( 25-Pb, 34-Cl) :   0.5084 
B( 25-Pb, 40-Cl) :   0.3796 B( 25-Pb, 44-Cl) :   0.1748 B( 26-N , 27-C ) :   0.9293 
B( 26-N , 28-H ) :   0.8162 B( 26-N , 29-H ) :   0.8664 B( 26-N , 33-H ) :   0.8075 
B( 27-C , 30-H ) :   0.9715 B( 27-C , 31-H ) :   0.9705 B( 27-C , 32-H ) :   0.9659 
B( 34-Cl, 36-H ) :   0.1761 B( 35-H , 38-C ) :   0.9750 B( 36-H , 39-N ) :   0.8248 
B( 37-H , 38-C ) :   0.9740 B( 38-C , 39-N ) :   0.9323 B( 38-C , 43-H ) :   0.9744 
B( 39-N , 41-H ) :   0.7708 B( 39-N , 42-H ) :   0.8008 B( 40-Cl, 41-H ) :   0.2289 
B( 42-H , 44-Cl) :   0.1950 B( 44-Cl, 54-H ) :   0.1609 B( 45-H , 47-C ) :   0.9744 
B( 46-H , 49-N ) :   0.7784 B( 47-C , 48-H ) :   0.9755 B( 47-C , 49-N ) :   0.9369 
B( 47-C , 51-H ) :   0.9746 B( 49-N , 50-H ) :   0.7841 B( 49-N , 52-H ) :   0.8232 
B( 53-H , 55-C ) :   0.9756 B( 54-H , 57-N ) :   0.8255 B( 55-C , 56-H ) :   0.9748 
B( 55-C , 57-N ) :   0.9378 B( 55-C , 59-H ) :   0.9747 B( 57-N , 58-H ) :   0.7710 
B( 57-N , 60-H ) :   0.7919 

-------
TIMINGS
-------

Total SCF time: 0 days 0 hours 21 min 4 sec 

Total time                  ....    1264.131 sec
Sum of individual times     ....     719.825 sec  ( 56.9%)

Fock matrix formation       ....     655.591 sec  ( 51.9%)
  Coulomb formation         ....     618.741 sec  ( 94.4% of F)
  Split-RI-J                ....      41.255 sec  (  6.3% of F)
  Chain of spheres X        ....    1100.746 sec  (167.9% of F)
  XC integration            ....      36.778 sec  (  5.6% of F)
    Basis function eval.    ....      10.879 sec  ( 29.6% of XC)
    Density eval.           ....      11.726 sec  ( 31.9% of XC)
    XC-Functional eval.     ....       1.198 sec  (  3.3% of XC)
    XC-Potential eval.      ....      12.501 sec  ( 34.0% of XC)
Diagonalization             ....       1.434 sec  (  0.1%)
Density matrix formation    ....       0.474 sec  (  0.0%)
Population analysis         ....       7.533 sec  (  0.6%)
Initial guess               ....       1.487 sec  (  0.1%)
Orbital Transformation      ....       0.000 sec  (  0.0%)
Orbital Orthonormalization  ....       1.347 sec  (  0.1%)
DIIS solution               ....       0.474 sec  (  0.0%)
SOSCF solution              ....       1.149 sec  (  0.1%)
Grid generation             ....      51.683 sec  (  4.1%)

------------------------------------------------------------------------------
                              ORCA MP2 CALCULATION
------------------------------------------------------------------------------


-------------
RI-MP2 ENERGY
-------------
Dimension of the basis                    ... 1095
Memory devoted to MP2                     ... 4000 MB   
Data format for buffers                   ... DOUBLE
Compression type for matrix containers    ... UNCOMPRESSED
Overall scaling of the MP2 energy         ...   2.700e-01 Eh
Calculating two index integrals           ... done (    0.083 sec)
Cholesky decomposition of V**-1           ... done (    1.022 sec)

-----------------
RI-TRANSFORMATION (AUX index driven)
-----------------

Dimension of the orbital-basis         ... 1095
Dimension of the aux-basis             ... 1897
Transformation of internal/external MOs...    0- 172 to  173-1094
Number Format for Storage              ... Double (8 Byte)
Integral mode                          ... Direct

First Phase: integral generation and transformation of MO indices
  Aux angular momentum 0               ... done (   35.496 sec)
  Aux angular momentum 1               ... done (   41.282 sec)
  Aux angular momentum 2               ... done (   51.612 sec)
  Aux angular momentum 3               ... done (   22.883 sec)
  Aux angular momentum 4               ... done (   22.378 sec)
Closing buffer VIA ( 2.25 GB; CompressionRatio= 1.00)
  Phase 1 completed in   173.777 sec
Second Phase: sorting and transformation of aux index

IA-Transformation
Memory available                       ... 3892 MB 
Max. # MO pairs treated in a batch     ... 173    
# of internal orbitals                 ... 173
# batches for internal orbitals        ... 1
Closing buffer IAV ( 2.25 GB; CompressionRatio= 1.00)
(ia|v) transformation done in   102.177 sec

  Phase 2 completed in   102.511 sec
RI-Integral transformation completed in   276.290 sec
Opening buffers                              ... done

Starting loop over batches of integrals:

Operator 0  - window                       ... (  0-172)x(173-1094)
Operator 0  - Memory available             ...  4000 MB
Operator 0  - Memory needed per MO         ...  13.3 MB
Operator 0  - Number of orbitals per batch ... 173
Operator 0  - Number of batches            ... 1

OPERATOR  0   PASS   0:  MOs     0 ...  172
  Reading integrals       ... ok
  Internal MO   2
  Internal MO   5
  Internal MO   8
  Internal MO  11
  Internal MO  14
  Internal MO  17
  Internal MO  20
  Internal MO  23
  Internal MO  26
  Internal MO  29
  Internal MO  32
  Internal MO  35
  Internal MO  38
  Internal MO  41
  Internal MO  44
  Internal MO  47
  Internal MO  50
  Internal MO  53
  Internal MO  56
  Internal MO  59
  Internal MO  62
  Internal MO  65
  Internal MO  68
  Internal MO  71
  Internal MO  74
  Internal MO  77
  Internal MO  80
  Internal MO  83
  Internal MO  86
  Internal MO  89
  Internal MO  92
  Internal MO  95
  Internal MO  98
  Internal MO 101
  Internal MO 104
  Internal MO 107
  Internal MO 110
  Internal MO 113
  Internal MO 116
  Internal MO 119
  Internal MO 122
  Internal MO 125
  Internal MO 128
  Internal MO 131
  Internal MO 134
  Internal MO 137
  Internal MO 140
  Internal MO 143
  Internal MO 146
  Internal MO 149
  Internal MO 152
  Internal MO 155
  Internal MO 158
  Internal MO 161
  Internal MO 164
  Internal MO 167
  Internal MO 170
Time spent in pair loops =  4311.913 sec

-----------------------------------------------
 RI-MP2 CORRELATION ENERGY:     -2.218462093 Eh
-----------------------------------------------


-------
TIMINGS
-------

Total time                : 4589.339 sec
Integral trafo            :  276.298 sec (  6.0%)
I/O of integrals          :    1.180 sec (  0.0%)
K(i,j) Operators          : 4050.625 sec ( 88.3%)
T(i,j) pair energies      :  211.178 sec (  4.6%)
V-calculation             :    0.083 sec (  0.0%)
V**(-1/2)                 :    1.022 sec (  0.0%)
Gamma(ia|P)               :    0.000 sec (  0.0%)
Gamma-Trafo               :    0.000 sec (  0.0%)
D(virtual)                :    0.000 sec (  0.0%)
D(internal)               :    0.000 sec (  0.0%)
W(virtual)                :    0.000 sec (  0.0%)
W(internal)               :    0.000 sec (  0.0%)
L(virtual)                :    0.000 sec (  0.0%)
L(internal)               :    0.000 sec (  0.0%)
G(D)                      :    0.000 sec (  0.0%)
G(Z)                      :    0.000 sec (  0.0%)
Z-Vector Solution         :    0.000 sec (  0.0%)
Z-Vector Solution         :    0.000 sec (  0.0%)
3-Index Derivative 
+ Separable RIJ part      :    0.000 sec (  0.0%)
2-Index Derivative 
+ Separable RIJ part      :    0.000 sec (  0.0%)
Separable Gradient (COSX) :    0.000 sec (  0.0%)


---------------------------------------
MP2 TOTAL ENERGY:    -6025.863818270 Eh
---------------------------------------

Entering the calculation of the dispersion correction...

Checking the input atom types...

Done


-------------------------------------------------------------------------------
                          DFT DISPERSION CORRECTION                            
                                                                               
                                DFTD3 V2.1  Rev 6                               
                          USING Becke-Johnson damping                          
-------------------------------------------------------------------------------
The B2PLYP functional is recognized
Active option DFTDOPT                   ...         4   

molecular C6(AA) [au] = 68542.511348 


            DFT-D V3
 parameters
 s6 scaling factor         :     0.6400 
 a1 scaling factor         :     0.3065 
 s8 scaling factor         :     0.9147 
 a2 scaling factor         :     5.0570 
 ad hoc parameters k1-k3   :    16.0000     1.3333    -4.0000 

 Edisp/kcal,au: -50.421848045100  -0.080352320962 
 E6   /kcal   : -25.092032495 
 E8   /kcal   : -25.329815550 
 % E8         :  50.235793672 

-------------------------   ----------------
Dispersion correction           -0.080352321
-------------------------   ----------------


-------------------------   --------------------
FINAL SINGLE POINT ENERGY     -6025.944170590655
-------------------------   --------------------


                            ***************************************
                            *     ORCA property calculations      *
                            ***************************************


  WARNING: The energy has been calculated at the MP2 level but the densities
           used in the property calculations are still SCF densities
           MP2 response densities have not been calculated 
           use %mp2 Density relaxed end
           or  %mp2 Density unrelaxed end

                                    ---------------------
                                    Active property flags
                                    ---------------------
   (+) Dipole Moment


------------------------------------------------------------------------------
                       ORCA ELECTRIC PROPERTIES CALCULATION
------------------------------------------------------------------------------

Dipole Moment Calculation                       ... on
Quadrupole Moment Calculation                   ... off
Polarizability Calculation                      ... off
GBWName                                         ... Pb2Cl11_6NH3CH3_-1_mp2_sp2_8.orca.gbw
Electron density file                           ... Pb2Cl11_6NH3CH3_-1_mp2_sp2_8.orca.scfp.tmp

-------------
DIPOLE MOMENT
-------------
                                X             Y             Z
Electronic contribution:    -45.14173      10.43372      27.76297
Nuclear contribution   :     45.44506     -10.08614     -29.60574
                        -----------------------------------------
Total Dipole Moment    :      0.30333       0.34758      -1.84277
                        -----------------------------------------
Magnitude (a.u.)       :      1.89964
Magnitude (Debye)      :      4.82850


Timings for individual modules:

Sum of individual times         ...     5872.246 sec (=  97.871 min)
GTO integral calculation        ...       11.343 sec (=   0.189 min)   0.2 %
SCF iterations                  ...     1269.954 sec (=  21.166 min)  21.6 %
MP2 module                      ...     4590.949 sec (=  76.516 min)  78.2 %
                             ****ORCA TERMINATED NORMALLY****
TOTAL RUN TIME: 0 days 1 hours 37 minutes 54 seconds 996 msec
