
                                 *****************
                                 * O   R   C   A *
                                 *****************

           --- An Ab Initio, DFT and Semiempirical electronic structure package ---

                  #######################################################
                  #                        -***-                        #
                  #  Department of molecular theory and spectroscopy    #
                  #              Directorship: Frank Neese              #
                  # Max Planck Institute for Chemical Energy Conversion #
                  #                  D-45470 Muelheim/Ruhr              #
                  #                       Germany                       #
                  #                                                     #
                  #                  All rights reserved                #
                  #                        -***-                        #
                  #######################################################


                         Program Version 3.0.3 - RELEASE   -


 With contributions from (in alphabetic order):
   Ute Becker             : Parallelization
   Dmytro Bykov           : SCF Hessian
   Dmitry Ganyushin       : Spin-Orbit,Spin-Spin,Magnetic field MRCI
   Andreas Hansen         : Spin unrestricted coupled pair/coupled cluster methods
   Dimitrios Liakos       : Extrapolation schemes; parallel MDCI
   Robert Izsak           : Overlap fitted RIJCOSX, COSX-SCS-MP3
   Christian Kollmar      : KDIIS, OOCD, Brueckner-CCSD(T), CCSD density
   Simone Kossmann        : Meta GGA functionals, TD-DFT gradient, OOMP2, MP2 Hessian
   Taras Petrenko         : DFT Hessian,TD-DFT gradient, ASA and ECA modules, normal mode analysis, Resonance Raman, ABS, FL, XAS/XES, NRVS
   Christoph Reimann      : Effective Core Potentials
   Michael Roemelt        : Restricted open shell CIS
   Christoph Riplinger    : Improved optimizer, TS searches, QM/MM, DLPNO-CCSD
   Barbara Sandhoefer     : DKH picture change effects
   Igor Schapiro          : Molecular dynamics
   Kantharuban Sivalingam : CASSCF convergence, NEVPT2
   Boris Wezisla          : Elementary symmetry handling
   Frank Wennmohs         : Technical directorship


 We gratefully acknowledge several colleagues who have allowed us to
 interface, adapt or use parts of their codes:
   Stefan Grimme, W. Hujo, H. Kruse, T. Risthaus : VdW corrections, initial TS optimization,
                                                   DFT functionals, gCP
   Ed Valeev                                     : LibInt (2-el integral package), F12 methods
   Garnet Chan, S. Sharma, R. Olivares           : DMRG
   Ulf Ekstrom                                   : XCFun DFT Library
   Mihaly Kallay                                 : mrcc  (arbitrary order and MRCC methods)
   Andreas Klamt, Michael Diedenhofen            : otool_cosmo (COSMO solvation model)
   Frank Weinhold                                : gennbo (NPA and NBO analysis)
   Christopher J. Cramer and Donald G. Truhlar   : smd solvation model


 Your calculation uses the libint2 library for the computation of 2-el integrals
 For citations please refer to: http://libint.valeyev.net

 This ORCA versions uses:
   CBLAS   interface :  Fast vector & matrix operations
   LAPACKE interface :  Fast linear algebra routines
   SCALAPACK package :  Parallel linear algebra routines


Your calculation utilizes the basis: Ahlrichs-TZV
Cite in your paper:
H - Kr: A. Schaefer, H. Horn and R. Ahlrichs, J. Chem. Phys. 97, 2571 (1992).

The def2-TZV basis will be loaded
Cite in your paper:
 	F. Weigend, R. Ahlrichs, Phys. Chem. Chem. Phys. 2005, 7, 3297.

Your calculation utilizes the atom-pairwise dispersion correction
with the Becke-Johnson damping scheme (D3BJ)
Cite in your paper:
S.Grimme, S.Ehrlich, L.Goerigk, J Comput Chem, (2011), 32, 1456–1465 
S.Grimme, J.Antony, S.Ehrlich and H.Krieg, J.Chem.Phys., 132, (2010), 154104 
   

================================================================================
                                        WARNINGS
                       Please study these warnings very carefully!
================================================================================

WARNING: The RI method has been chosen with no auxiliary basis (AUX or GTOAUX in BASIS block)
        Standard TZV/J expansion basis used (GTOAUX=TZV_J)

Now building the actual basis set
cite the ECPs for Pb [SD(60,MDF)] as follows:
  B. Metz, H. Stoll, M. Dolg, J. Chem. Phys. 113, 2563 (2000).

ECP parameters for Pb [SD(60,MDF)] have been obtained from:
  pseudopotential library of the Stuttgart/Cologne group
  http://www.theochem.uni-stuttgart.de/pseudopotentials/

cite the ECP basis sets for Pb [DEF2-TZVP] as follows:
  F. Weigend, R. Ahlrichs; Phys. Chem. Chem. Phys. 7, 3297(2005).

ECP basis sets for Pb [DEF2-TZVP] have been obtained from:
  Turbomole basis set library
  ftp://ftp.chemie.uni-karlsruhe.de/pub/basen/



INFO   : the flag for use of LIBINT has been found!

================================================================================
                                       INPUT FILE
================================================================================
NAME = PbMACl3_mp2_md_22.orca
|  1> ! RIJCOSX RI-B2PLYP D3BJ def2-TZVP ECP{def2-TZVP} TIGHTSCF Grid5 FinalGrid6 SlowConv MORead
|  2> %method
|  3>  RunTyp Gradient
|  4>  end
|  5> %maxcore 1000
|  6> %moinp "previous.gbw"
|  7> *xyz 0 1
|  8> C -0.328561 -0.015159 -1.840040 
|  9> N 0.062558 -0.610120 -0.489830 
| 10> H -0.495321 -1.286060 -0.318890 
| 11> H -0.165701 0.166853 0.209305 
| 12> H 1.138090 -0.877757 -0.534442 
| 13> H -1.200960 0.536846 -1.646990 
| 14> H -0.331812 -0.779165 -2.642290 
| 15> H 0.409249 0.749679 -2.122780 
| 16> Pb -3.109580 -2.561810 -2.339170 
| 17> Cl -0.787446 -3.183300 -1.664170 
| 18> Cl -3.393050 -0.360085 -3.365130 
| 19> Cl -4.851240 -3.580060 -0.952145 
| 20> *
| 21> 
| 22>                          ****END OF INPUT****
================================================================================

                     *******************************
                     * Energy+Gradient Calculation *
                     *******************************

---------------------------------
CARTESIAN COORDINATES (ANGSTROEM)
---------------------------------
  C     -0.328561   -0.015159   -1.840040
  N      0.062558   -0.610120   -0.489830
  H     -0.495321   -1.286060   -0.318890
  H     -0.165701    0.166853    0.209305
  H      1.138090   -0.877757   -0.534442
  H     -1.200960    0.536846   -1.646990
  H     -0.331812   -0.779165   -2.642290
  H      0.409249    0.749679   -2.122780
  Pb    -3.109580   -2.561810   -2.339170
  Cl    -0.787446   -3.183300   -1.664170
  Cl    -3.393050   -0.360085   -3.365130
  Cl    -4.851240   -3.580060   -0.952145

----------------------------
CARTESIAN COORDINATES (A.U.)
----------------------------
  NO LB      ZA    FRAG    MASS        X           Y           Z
   0 C     6.0000    0    12.011         -0.620890308287300         -0.028646358464112         -3.477171675460460
   1 N     7.0000    0    14.007          0.118217487485846         -1.152959708828034         -0.925644552178647
   2 H     1.0000    0     1.008         -0.936021038380008         -2.430301191790765         -0.602614766846148
   3 H     1.0000    0     1.008         -0.313129510116885          0.315306474623163          0.395529128460388
   4 H     1.0000    0     1.008          2.150678415754437         -1.658720342132316         -1.009949014465142
   5 H     1.0000    0     1.008         -2.269485497794066          1.014491916091088         -3.112360045306962
   6 H     1.0000    0     1.008         -0.627033807948678         -1.472408463136752         -4.993204466398784
   7 H     1.0000    0     1.008          0.773368530581138          1.416687998351950         -4.011472842565355
   8 Pb   22.0000*   0   207.200  -5.876254591518846  -4.841119307140802  -4.420390680684575
   9 Cl   17.0000    0    35.453         -1.488057285251754         -6.015565202111520         -3.144825540287729
  10 Cl   17.0000    0    35.453         -6.411935258701503         -0.680462034933034         -6.359174105042422
  11 Cl   17.0000    0    35.453         -9.167515009924132         -6.765332943006117         -1.799293289782450
* core charge reduced due to ECP

--------------------------------
INTERNAL COORDINATES (ANGSTROEM)
--------------------------------
 C      0   0   0   0.000000     0.000     0.000
 N      1   0   0   1.526440     0.000     0.000
 H      2   1   0   0.892941   107.716     0.000
 H      2   1   3   1.069850   103.905   246.785
 H      2   1   3   1.109229   107.873   125.327
 H      1   2   3   1.050266   104.780    75.288
 H      1   2   3   1.107845   111.870   304.334
 H      1   2   3   1.099674   109.063   185.941
 Pb     7   1   2   3.314468   107.887    77.563
 Cl     3   2   1   2.344064   125.498    58.880
 Cl     9   7   1   2.445515    64.821    77.523
 Cl     9   7   1   2.448275   150.656   326.541

---------------------------
INTERNAL COORDINATES (A.U.)
---------------------------
 C      0   0   0   0.000000     0.000     0.000
 N      1   0   0   2.884554     0.000     0.000
 H      2   1   0   1.687415   107.716     0.000
 H      2   1   3   2.021723   103.905   246.785
 H      2   1   3   2.096139   107.873   125.327
 H      1   2   3   1.984714   104.780    75.288
 H      1   2   3   2.093524   111.870   304.334
 H      1   2   3   2.078082   109.063   185.941
 Pb     7   1   2   6.263437   107.887    77.563
 Cl     3   2   1   4.429639   125.498    58.880
 Cl     9   7   1   4.621353    64.821    77.523
 Cl     9   7   1   4.626569   150.656   326.541

---------------------
BASIS SET INFORMATION
---------------------
There are 5 groups of distinct atoms

 Group   1 Type C   : 11s6p2d1f contracted to 5s3p2d1f pattern {62111/411/11/1}
 Group   2 Type N   : 11s6p2d1f contracted to 5s3p2d1f pattern {62111/411/11/1}
 Group   3 Type H   : 5s1p contracted to 3s1p pattern {311/1}
 Group   4 Type Pb  : 10s9p8d2f contracted to 6s5p3d2f pattern {421111/33111/611/11}
 Group   5 Type Cl  : 14s9p3d1f contracted to 5s5p2d1f pattern {73211/51111/21/1}

Atom   0C    basis set group =>   1
Atom   1N    basis set group =>   2
Atom   2H    basis set group =>   3
Atom   3H    basis set group =>   3
Atom   4H    basis set group =>   3
Atom   5H    basis set group =>   3
Atom   6H    basis set group =>   3
Atom   7H    basis set group =>   3
Atom   8Pb   basis set group =>   4
Atom   9Cl   basis set group =>   5
Atom  10Cl   basis set group =>   5
Atom  11Cl   basis set group =>   5
-------------------------------
AUXILIARY BASIS SET INFORMATION
-------------------------------
There are 5 groups of distinct atoms

 Group   1 Type C   : 12s5p4d2f1g contracted to 6s4p3d1f1g pattern {711111/2111/211/2/1}
 Group   2 Type N   : 12s5p4d2f1g contracted to 6s4p3d1f1g pattern {711111/2111/211/2/1}
 Group   3 Type H   : 5s2p1d contracted to 3s1p1d pattern {311/2/1}
 Group   4 Type Pb  : 31s12p8d6f3g contracted to 31s12p8d6f3g pattern {1111111111111111111111111111111/111111111111/11111111/111111/111}
 Group   5 Type Cl  : 14s5p5d2f1g contracted to 8s4p3d1f1g pattern {71111111/2111/311/2/1}

Atom   0C    basis set group =>   1
Atom   1N    basis set group =>   2
Atom   2H    basis set group =>   3
Atom   3H    basis set group =>   3
Atom   4H    basis set group =>   3
Atom   5H    basis set group =>   3
Atom   6H    basis set group =>   3
Atom   7H    basis set group =>   3
Atom   8Pb   basis set group =>   4
Atom   9Cl   basis set group =>   5
Atom  10Cl   basis set group =>   5
Atom  11Cl   basis set group =>   5

-------------------------
ECP PARAMETER INFORMATION
-------------------------

 Group 1, Type Pb ECP SD(60,MDF) (replacing 60 core electrons, lmax=5)

Atom   8Pb   ECP group =>   1


------------------------------------------------------------------------------
                           ORCA GTO INTEGRAL CALCULATION
                           -- RI-GTO INTEGRALS CHOSEN --
------------------------------------------------------------------------------

                         BASIS SET STATISTICS AND STARTUP INFO

Gaussian basis set:
 # of primitive gaussian shells          ...  186
 # of primitive gaussian functions       ...  420
 # of contracted shells                  ...  101
 # of contracted basis functions         ...  259
 Highest angular momentum                ...    3
 Maximum contraction depth               ...    7
Auxiliary gaussian basis set:
 # of primitive gaussian shells          ...  237
 # of primitive gaussian functions       ...  643
 # of contracted shells                  ...  171
 # of contracted aux-basis functions     ...  493
 Highest angular momentum                ...    4
 Maximum contraction depth               ...    7
Ratio of auxiliary to basis functions    ...  1.90
Integral package used                  ... LIBINT
 One Electron integrals                  
   ECP integrals                         ... done
 Ordering auxiliary basis shells         ... done
 Integral threshhold             Thresh  ...  2.500e-11
 Primitive cut-off               TCut    ...  2.500e-12
 Pre-screening matrix                    ... done
 Shell pair data                         ... 
 Ordering of the shell pairs             ... done (   0.001 sec) 4254 of 5151 pairs
 Determination of significant pairs      ... done (   0.000 sec)
 Creation of shell pair data             ... done (   0.002 sec)
 Storage of shell pair data              ... done (   0.001 sec)
 Shell pair data done in (   0.003 sec)
 Computing two index integrals           ... done
 Cholesky decomposition of the V-matrix  ... done


Timings:
 Total evaluation time                   ...   0.544 sec (  0.009 min)
 One electron matrix time                ...   0.288 sec (  0.005 min) = 52.9%
 Schwartz matrix evaluation time         ...   0.211 sec (  0.004 min) = 38.8%
 Two index repulsion integral time       ...   0.008 sec (  0.000 min) =  1.5%
 Cholesky decomposition of V             ...   0.007 sec (  0.000 min) =  1.3%
 Three index repulsion integral time     ...   0.000 sec (  0.000 min) =  0.0%

-------------------------------------------------------------------------------
                                 ORCA SCF
-------------------------------------------------------------------------------

------------
SCF SETTINGS
------------
Hamiltonian:
 Density Functional     Method          .... DFT(GTOs)
 Exchange Functional    Exchange        .... B88
   X-Alpha parameter    XAlpha          ....  0.666667
   Becke's b parameter  XBeta           ....  0.004200
 Correlation Functional Correlation     .... LYP
 LDA part of GGA corr.  LDAOpt          .... VWN-3
 Gradients option       PostSCFGGA      .... off
 Hybrid DFT is turned on
   Fraction HF Exchange ScalHFX         ....  0.530000
   Scaling of DF-GGA-X  ScalDFX         ....  0.470000
   Scaling of DF-GGA-C  ScalDFC         ....  0.730000
   Scaling of DF-LDA-C  ScalLDAC        ....  0.730000
   Perturbative correction              ....  0.270000
 RI-approximation to the Coulomb term is turned on
   Number of auxiliary basis functions  .... 493
   RIJ-COSX (HFX calculated with COS-X)).... on


General Settings:
 Integral files         IntName         .... PbMACl3_mp2_md_22.orca
 Hartree-Fock type      HFTyp           .... RHF
 Total Charge           Charge          ....    0
 Multiplicity           Mult            ....    1
 Number of Electrons    NEL             ....   92
 Basis Dimension        Dim             ....  259
 Nuclear Repulsion      ENuc            ....    580.8604966976 Eh

Convergence Acceleration:
 DIIS                   CNVDIIS         .... on
   Start iteration      DIISMaxIt       ....     0
   Startup error        DIISStart       ....  0.200000
   # of expansion vecs  DIISMaxEq       ....     5
   Bias factor          DIISBfac        ....   1.050
   Max. coefficient     DIISMaxC        ....  10.000
 Newton-Raphson         CNVNR           .... off
 SOSCF                  CNVSOSCF        .... on
   Start iteration      SOSCFMaxIt      ....   150
   Startup grad/error   SOSCFStart      ....  0.001000
 Level Shifting         CNVShift        .... on
   Level shift para.    LevelShift      ....    0.2500
   Turn off err/grad.   ShiftErr        ....    0.0000
 Zerner damping         CNVZerner       .... off
 Static damping         CNVDamp         .... on
   Fraction old density DampFac         ....    0.8500
   Max. Damping (<1)    DampMax         ....    0.9800
   Min. Damping (>=0)   DampMin         ....    0.0000
   Turn off err/grad.   DampErr         ....    0.0300
 Fernandez-Rico         CNVRico         .... off

SCF Procedure:
 Maximum # iterations   MaxIter         ....   125
 SCF integral mode      SCFMode         .... Direct
   Integral package                     .... LIBINT
 Reset frequeny         DirectResetFreq ....    20
 Integral Threshold     Thresh          ....  2.500e-11 Eh
 Primitive CutOff       TCut            ....  2.500e-12 Eh

Convergence Tolerance:
 Convergence Check Mode ConvCheckMode   .... Total+1el-Energy
 Energy Change          TolE            ....  1.000e-08 Eh
 1-El. energy change                    ....  1.000e-05 Eh
 Orbital Gradient       TolG            ....  1.000e-05
 Orbital Rotation angle TolX            ....  1.000e-05
 DIIS Error             TolErr          ....  5.000e-07


Diagonalization of the overlap matrix:
Smallest eigenvalue                        ... 9.047e-04
Time for diagonalization                   ...    0.016 sec
Threshold for overlap eigenvalues          ... 1.000e-08
Number of eigenvalues below threshold      ... 0
Time for construction of square roots      ...    0.005 sec
Total time needed                          ...    0.022 sec

---------------------
INITIAL GUESS: MOREAD
---------------------
Guess MOs are being read from file: previous.gbw
Input geometry compatible with but different from current geometry
Input basis set matches current basis set (good)
MOs were renormalized
MOs were reorthogonalized (Schmidt)
                      ------------------
                      INITIAL GUESS DONE (   0.1 sec)
                      ------------------
-------------------
DFT GRID GENERATION
-------------------

General Integration Accuracy     IntAcc      ...  5.010
Radial Grid Type                 RadialGrid  ... Gauss-Chebyshev
Angular Grid (max. acc.)         AngularGrid ... Lebedev-434
Angular grid pruning method      GridPruning ... 3 (G Style)
Weight generation scheme         WeightScheme... Becke
Basis function cutoff            BFCut       ...    1.0000e-11
Integration weight cutoff        WCut        ...    1.0000e-14
Grids for H and He will be reduced by one unit

# of grid points (after initial pruning)     ... 115882 (   0.0 sec)
# of grid points (after weights+screening)   ... 108931 (   0.2 sec)
nearest neighbour list constructed           ...    0.0 sec
Grid point re-assignment to atoms done       ...    0.0 sec
Grid point division into batches done        ...    0.9 sec
Reduced shell lists constructed in    3.2 sec

Total number of grid points                  ...   108931
Total number of batches                      ...     1711
Average number of points per batch           ...       63
Average number of grid points per atom       ...     9078
Average number of shells per batch           ...    52.47 (51.95%)
Average number of basis functions per batch  ...   137.59 (53.12%)
Average number of large shells per batch     ...    39.56 (75.38%)
Average number of large basis fcns per batch ...   101.90 (74.06%)
Maximum spatial batch extension              ...  30.77, 33.97, 34.19 au
Average spatial batch extension              ...   2.35,  2.41,  2.48 au

Time for grid setup =    3.478 sec

--------------------
COSX GRID GENERATION
--------------------

General Integration Accuracy     IntAcc      ...  3.340
Radial Grid Type                 RadialGrid  ... Gauss-Chebyshev
Angular Grid (max. acc.)         AngularGrid ... Lebedev-50
Angular grid pruning method      GridPruning ... 3 (G Style)
Weight generation scheme         WeightScheme... Becke
Basis function cutoff            BFCut       ...    1.0000e-11
Integration weight cutoff        WCut        ...    1.0000e-14
Grids for H and He will be reduced by one unit

# of grid points (after initial pruning)     ...   6578 (   0.0 sec)
# of grid points (after weights+screening)   ...   6281 (   0.0 sec)
nearest neighbour list constructed           ...    0.0 sec
Grid point re-assignment to atoms done       ...    0.0 sec
Grid point division into batches done        ...    0.0 sec
Reduced shell lists constructed in    0.2 sec

Total number of grid points                  ...     6281
Total number of batches                      ...      104
Average number of points per batch           ...       60
Average number of grid points per atom       ...      523
Average number of shells per batch           ...    63.50 (62.88%)
Average number of basis functions per batch  ...   169.14 (65.31%)
Average number of large shells per batch     ...    49.68 (78.22%)
Average number of large basis fcns per batch ...   130.15 (76.95%)
Maximum spatial batch extension              ...  25.01, 29.53, 36.53 au
Average spatial batch extension              ...   6.01,  6.48,  7.21 au

Overlap Fitting                  UseSFitting ... on
Constructing numerical overlap ... done (      0.1 sec)
Inverting numerical overlap    ... done (      0.0 sec)
Obtaining analytic overlap     ... done (      0.0 sec)
Final contraction and storage  ... done (      0.0 sec)


General Integration Accuracy     IntAcc      ...  3.670
Radial Grid Type                 RadialGrid  ... Gauss-Chebyshev
Angular Grid (max. acc.)         AngularGrid ... Lebedev-50
Angular grid pruning method      GridPruning ... 3 (G Style)
Weight generation scheme         WeightScheme... Becke
Basis function cutoff            BFCut       ...    1.0000e-11
Integration weight cutoff        WCut        ...    1.0000e-14
Grids for H and He will be reduced by one unit

# of grid points (after initial pruning)     ...   8124 (   0.0 sec)
# of grid points (after weights+screening)   ...   7729 (   0.0 sec)
nearest neighbour list constructed           ...    0.0 sec
Grid point re-assignment to atoms done       ...    0.0 sec
Grid point division into batches done        ...    0.0 sec
Reduced shell lists constructed in    0.2 sec

Total number of grid points                  ...     7729
Total number of batches                      ...      126
Average number of points per batch           ...       61
Average number of grid points per atom       ...      644
Average number of shells per batch           ...    62.80 (62.17%)
Average number of basis functions per batch  ...   166.94 (64.45%)
Average number of large shells per batch     ...    48.92 (77.91%)
Average number of large basis fcns per batch ...   127.94 (76.64%)
Maximum spatial batch extension              ...  26.20, 29.25, 37.97 au
Average spatial batch extension              ...   5.62,  5.74,  6.57 au

Overlap Fitting                  UseSFitting ... on
Constructing numerical overlap ... done (      0.1 sec)
Inverting numerical overlap    ... done (      0.0 sec)
Obtaining analytic overlap     ... done (      0.0 sec)
Final contraction and storage  ... done (      0.0 sec)


General Integration Accuracy     IntAcc      ...  4.010
Radial Grid Type                 RadialGrid  ... Gauss-Chebyshev
Angular Grid (max. acc.)         AngularGrid ... Lebedev-110
Angular grid pruning method      GridPruning ... 3 (G Style)
Weight generation scheme         WeightScheme... Becke
Basis function cutoff            BFCut       ...    1.0000e-11
Integration weight cutoff        WCut        ...    1.0000e-14
Grids for H and He will be reduced by one unit

# of grid points (after initial pruning)     ...  15170 (   0.0 sec)
# of grid points (after weights+screening)   ...  14490 (   0.0 sec)
nearest neighbour list constructed           ...    0.0 sec
Grid point re-assignment to atoms done       ...    0.0 sec
Grid point division into batches done        ...    0.0 sec
Reduced shell lists constructed in    0.4 sec

Total number of grid points                  ...    14490
Total number of batches                      ...      233
Average number of points per batch           ...       62
Average number of grid points per atom       ...     1208
Average number of shells per batch           ...    59.56 (58.97%)
Average number of basis functions per batch  ...   158.12 (61.05%)
Average number of large shells per batch     ...    45.65 (76.64%)
Average number of large basis fcns per batch ...   119.29 (75.44%)
Maximum spatial batch extension              ...  29.51, 34.29, 39.26 au
Average spatial batch extension              ...   4.84,  4.73,  5.30 au

Overlap Fitting                  UseSFitting ... on
Constructing numerical overlap ... done (      0.2 sec)
Inverting numerical overlap    ... done (      0.0 sec)
Obtaining analytic overlap     ... done (      0.0 sec)
Final contraction and storage  ... done (      0.0 sec)

Time for X-Grid setup             =    1.319 sec
--------------
SCF ITERATIONS
--------------
ITER       Energy         Delta-E        Max-DP      RMS-DP      [F,P]     Damp
               ***  Starting incremental Fock matrix formation  ***
  0  -1663.9102942549   0.000000000000 0.12981804  0.00212367  0.7166256 0.8500
  1  -1664.6349031238  -0.724608868886 0.11744703  0.00191494  0.5520286 0.8500
                               ***Turning on DIIS***
  2  -1665.2378713673  -0.602968243474 0.09660027  0.00164726  0.4694541 0.8500
  3  -1665.7458744405  -0.508003073221 0.07746831  0.00140502  0.3992049 0.8500
  4  -1666.1842859113  -0.438411470794 0.06339154  0.00121482  0.3394173 0.8500
  5  -1666.5620363215  -0.377750410242 0.05282818  0.00105786  0.2885458 0.8500
  6  -1666.8901398087  -0.328103487219 0.04497562  0.00091794  0.2452800 0.8500
  7  -1667.1762094137  -0.286069604946 0.03876594  0.00079223  0.2084956 0.8500
  8  -1667.4253252146  -0.249115800940 0.03352349  0.00067985  0.1772277 0.8500
  9  -1667.6408549613  -0.215529746679 0.02870847  0.00058116  0.1506494 0.8500
 10  -1667.8265809695  -0.185726008143 0.02438388  0.00049612  0.1280568 0.8500
 11  -1667.9863425334  -0.159761563951 0.02067975  0.00042348  0.1088522 0.8500
 12  -1668.1236015231  -0.137258989666 0.01757066  0.00036149  0.0925275 0.8500
 13  -1668.2413691813  -0.117767658229 0.01495655  0.00030845  0.0786509 0.8500
 14  -1668.3422636119  -0.100894430644 0.01273062  0.00026305  0.0668553 0.8500
 15  -1668.4285899137  -0.086326301734 0.01082452  0.00022426  0.0568287 0.8500
 16  -1668.5023771912  -0.073787277502 0.00919823  0.00019119  0.0483057 0.8500
 17  -1668.5653964500  -0.063019258781 0.00781736  0.00016300  0.0410610 0.8500
 18  -1668.6191825710  -0.053786121077 0.00664653  0.00013898  0.0349027 0.8500
 19  -1668.6650607857  -0.045878214693 0.03768101  0.00078998  0.0296681 0.0000
               *** Restarting incremental Fock matrix formation ***
                                   *** Resetting DIIS ***
                      *** Initiating the SOSCF procedure ***
                           *** Shutting down DIIS ***
                      *** Re-Reading the Fockian *** 
                      *** Removing any level shift *** 
ITER      Energy       Delta-E        Grad      Rot      Max-DP    RMS-DP
 20  -1668.93067139  -0.2656106032  0.000353  0.000353  0.002009  0.000027
               *** Restarting incremental Fock matrix formation ***
 21  -1668.92793411   0.0027372794  0.000314  0.001216  0.001913  0.000028
 22  -1668.92793483  -0.0000007252  0.000118  0.000770  0.000625  0.000013
 23  -1668.92793455   0.0000002856  0.000090  0.000104  0.000428  0.000005
 24  -1668.92793516  -0.0000006122  0.000020  0.000069  0.000098  0.000001
 25  -1668.92793528  -0.0000001155  0.000006  0.000043  0.000030  0.000001
 26  -1668.92793526   0.0000000121  0.000005  0.000009  0.000015  0.000000
                  ***Gradient check signals convergence***
              ***Rediagonalizing the Fockian in SOSCF/NRSCF***

               *****************************************************
               *                     SUCCESS                       *
               *           SCF CONVERGED AFTER  27 CYCLES          *
               *****************************************************

Old exchange energy                            =    -59.229037023 Eh
New exchange energy                            =    -59.232088050 Eh
Exchange energy change after final integration =     -0.003051027 Eh
Total energy after final integration           =  -1668.930986274 Eh
Final COS-X integration done in                =    18.596 sec

----------------
TOTAL SCF ENERGY
----------------

Total Energy       :        -1668.93098627 Eh          -45413.92094 eV

Components:
Nuclear Repulsion  :          580.86049670 Eh           15806.01768 eV
Electronic Energy  :        -2249.79148297 Eh          -61219.93861 eV

One Electron Energy:        -3533.59753207 Eh          -96154.07723 eV
Two Electron Energy:         1283.80604910 Eh           34934.13861 eV

Virial components:
Potential Energy   :        -3207.01878562 Eh          -87267.41775 eV
Kinetic Energy     :         1538.08779934 Eh           41853.49681 eV
Virial Ratio       :            2.08506874


DFT components:
N(Alpha)           :       46.000003052894 electrons
N(Beta)            :       46.000003052894 electrons
N(Total)           :       92.000006105788 electrons
E(X)               :      -52.603261195472 Eh       
E(C)               :       -2.608324925024 Eh       
E(XC)              :      -55.211586120496 Eh       

---------------
SCF CONVERGENCE
---------------

  Last Energy change         ...    1.7732e-08  Tolerance :   1.0000e-08
  Last MAX-Density change    ...    2.9035e-13  Tolerance :   1.0000e-07
  Last RMS-Density change    ...    2.0839e-15  Tolerance :   5.0000e-09
  Last Orbital Gradient      ...    6.1366e-07  Tolerance :   1.0000e-05
  Last Orbital Rotation      ...    8.0241e-07  Tolerance :   1.0000e-05

             **** THE GBW FILE WAS UPDATED (PbMACl3_mp2_md_22.orca.gbw) ****
             **** DENSITY FILE WAS UPDATED (PbMACl3_mp2_md_22.orca.scfp.tmp) ****
             **** ENERGY FILE WAS UPDATED (PbMACl3_mp2_md_22.orca.en.tmp) ****
----------------
ORBITAL ENERGIES
----------------

  NO   OCC          E(Eh)            E(eV) 
   0   2.0000    -102.844144     -2798.5314 
   1   2.0000    -102.824283     -2797.9910 
   2   2.0000    -102.811307     -2797.6379 
   3   2.0000     -15.033524      -409.0830 
   4   2.0000     -10.727147      -291.9005 
   5   2.0000      -9.853468      -268.1265 
   6   2.0000      -9.833006      -267.5697 
   7   2.0000      -9.819433      -267.2004 
   8   2.0000      -7.489896      -203.8104 
   9   2.0000      -7.488964      -203.7851 
  10   2.0000      -7.488576      -203.7745 
  11   2.0000      -7.469612      -203.2585 
  12   2.0000      -7.468358      -203.2243 
  13   2.0000      -7.468105      -203.2175 
  14   2.0000      -7.456223      -202.8942 
  15   2.0000      -7.454740      -202.8538 
  16   2.0000      -7.454489      -202.8470 
  17   2.0000      -5.761930      -156.7901 
  18   2.0000      -3.535458       -96.2047 
  19   2.0000      -3.532216       -96.1165 
  20   2.0000      -3.530755       -96.0767 
  21   2.0000      -1.205825       -32.8122 
  22   2.0000      -0.940163       -25.5831 
  23   2.0000      -0.936984       -25.4966 
  24   2.0000      -0.934737       -25.4355 
  25   2.0000      -0.924721       -25.1629 
  26   2.0000      -0.923495       -25.1296 
  27   2.0000      -0.887880       -24.1604 
  28   2.0000      -0.869953       -23.6726 
  29   2.0000      -0.842802       -22.9338 
  30   2.0000      -0.827597       -22.5201 
  31   2.0000      -0.754652       -20.5351 
  32   2.0000      -0.727978       -19.8093 
  33   2.0000      -0.616595       -16.7784 
  34   2.0000      -0.558737       -15.2040 
  35   2.0000      -0.537764       -14.6333 
  36   2.0000      -0.529259       -14.4019 
  37   2.0000      -0.382469       -10.4075 
  38   2.0000      -0.370237       -10.0747 
  39   2.0000      -0.359654        -9.7867 
  40   2.0000      -0.343201        -9.3390 
  41   2.0000      -0.331955        -9.0330 
  42   2.0000      -0.325478        -8.8567 
  43   2.0000      -0.312239        -8.4964 
  44   2.0000      -0.309487        -8.4216 
  45   2.0000      -0.222660        -6.0589 
  46   0.0000      -0.037732        -1.0267 
  47   0.0000      -0.012267        -0.3338 
  48   0.0000       0.018723         0.5095 
  49   0.0000       0.056369         1.5339 
  50   0.0000       0.074167         2.0182 
  51   0.0000       0.091836         2.4990 
  52   0.0000       0.098391         2.6773 
  53   0.0000       0.101092         2.7509 
  54   0.0000       0.126974         3.4551 
  55   0.0000       0.135739         3.6936 
  56   0.0000       0.146791         3.9944 
  57   0.0000       0.167861         4.5677 
  58   0.0000       0.177911         4.8412 
  59   0.0000       0.198377         5.3981 
  60   0.0000       0.205980         5.6050 
  61   0.0000       0.250352         6.8124 
  62   0.0000       0.253136         6.8882 
  63   0.0000       0.259047         7.0490 
  64   0.0000       0.267682         7.2840 
  65   0.0000       0.287501         7.8233 
  66   0.0000       0.311344         8.4721 
  67   0.0000       0.321504         8.7486 
  68   0.0000       0.339585         9.2406 
  69   0.0000       0.350919         9.5490 
  70   0.0000       0.384255        10.4561 
  71   0.0000       0.413200        11.2437 
  72   0.0000       0.416812        11.3420 
  73   0.0000       0.421869        11.4796 
  74   0.0000       0.436129        11.8677 
  75   0.0000       0.443551        12.0696 
  76   0.0000       0.459489        12.5033 
  77   0.0000       0.468965        12.7612 
  78   0.0000       0.470520        12.8035 
  79   0.0000       0.479783        13.0556 
  80   0.0000       0.490089        13.3360 
  81   0.0000       0.496300        13.5050 
  82   0.0000       0.504094        13.7171 
  83   0.0000       0.507015        13.7966 
  84   0.0000       0.526162        14.3176 
  85   0.0000       0.534193        14.5361 
  86   0.0000       0.539405        14.6780 
  87   0.0000       0.542428        14.7602 
  88   0.0000       0.548731        14.9317 
  89   0.0000       0.558480        15.1970 
  90   0.0000       0.581309        15.8182 
  91   0.0000       0.590018        16.0552 
  92   0.0000       0.607265        16.5245 
  93   0.0000       0.617352        16.7990 
  94   0.0000       0.629872        17.1397 
  95   0.0000       0.635068        17.2811 
  96   0.0000       0.643235        17.5033 
  97   0.0000       0.659794        17.9539 
  98   0.0000       0.664641        18.0858 
  99   0.0000       0.696867        18.9627 
 100   0.0000       0.729596        19.8533 
 101   0.0000       0.733777        19.9671 
 102   0.0000       0.768452        20.9106 
 103   0.0000       0.785187        21.3660 
 104   0.0000       0.796987        21.6871 
 105   0.0000       0.818471        22.2717 
 106   0.0000       0.856131        23.2965 
 107   0.0000       0.869034        23.6476 
 108   0.0000       0.899348        24.4725 
 109   0.0000       0.918594        24.9962 
 110   0.0000       0.920465        25.0471 
 111   0.0000       0.946235        25.7484 
 112   0.0000       0.951665        25.8961 
 113   0.0000       0.959808        26.1177 
 114   0.0000       0.981383        26.7048 
 115   0.0000       1.001724        27.2583 
 116   0.0000       1.010287        27.4913 
 117   0.0000       1.071673        29.1617 
 118   0.0000       1.091403        29.6986 
 119   0.0000       1.099757        29.9259 
 120   0.0000       1.133364        30.8404 
 121   0.0000       1.146133        31.1879 
 122   0.0000       1.151326        31.3292 
 123   0.0000       1.181034        32.1376 
 124   0.0000       1.198803        32.6211 
 125   0.0000       1.230641        33.4875 
 126   0.0000       1.281953        34.8837 
 127   0.0000       1.312081        35.7035 
 128   0.0000       1.366062        37.1724 
 129   0.0000       1.366716        37.1902 
 130   0.0000       1.385602        37.7042 
 131   0.0000       1.509238        41.0684 
 132   0.0000       1.527943        41.5775 
 133   0.0000       1.546373        42.0789 
 134   0.0000       1.591313        43.3018 
 135   0.0000       1.648879        44.8683 
 136   0.0000       1.735361        47.2216 
 137   0.0000       1.741369        47.3850 
 138   0.0000       1.774486        48.2862 
 139   0.0000       1.847393        50.2701 
 140   0.0000       1.877614        51.0925 
 141   0.0000       1.884017        51.2667 
 142   0.0000       1.936805        52.7031 
 143   0.0000       1.939480        52.7759 
 144   0.0000       1.954545        53.1859 
 145   0.0000       1.955818        53.2205 
 146   0.0000       1.963948        53.4418 
 147   0.0000       1.980078        53.8807 
 148   0.0000       1.990041        54.1518 
 149   0.0000       1.995507        54.3005 
 150   0.0000       2.003829        54.5270 
 151   0.0000       2.021934        55.0196 
 152   0.0000       2.029646        55.2295 
 153   0.0000       2.038411        55.4680 
 154   0.0000       2.042224        55.5717 
 155   0.0000       2.072836        56.4047 
 156   0.0000       2.090005        56.8719 
 157   0.0000       2.095594        57.0240 
 158   0.0000       2.113758        57.5183 
 159   0.0000       2.137570        58.1662 
 160   0.0000       2.150352        58.5140 
 161   0.0000       2.156124        58.6711 
 162   0.0000       2.169517        59.0355 
 163   0.0000       2.179076        59.2957 
 164   0.0000       2.183242        59.4090 
 165   0.0000       2.210470        60.1500 
 166   0.0000       2.216256        60.3074 
 167   0.0000       2.248530        61.1856 
 168   0.0000       2.258799        61.4651 
 169   0.0000       2.261874        61.5487 
 170   0.0000       2.274303        61.8869 
 171   0.0000       2.275233        61.9122 
 172   0.0000       2.279098        62.0174 
 173   0.0000       2.280530        62.0564 
 174   0.0000       2.282242        62.1030 
 175   0.0000       2.292489        62.3818 
 176   0.0000       2.293614        62.4124 
 177   0.0000       2.301442        62.6254 
 178   0.0000       2.324324        63.2481 
 179   0.0000       2.337615        63.6098 
 180   0.0000       2.339845        63.6704 
 181   0.0000       2.353592        64.0445 
 182   0.0000       2.366444        64.3942 
 183   0.0000       2.373858        64.5960 
 184   0.0000       2.389080        65.0102 
 185   0.0000       2.402155        65.3660 
 186   0.0000       2.423786        65.9546 
 187   0.0000       2.432787        66.1995 
 188   0.0000       2.437326        66.3230 
 189   0.0000       2.443175        66.4822 
 190   0.0000       2.451436        66.7070 
 191   0.0000       2.464368        67.0589 
 192   0.0000       2.484937        67.6186 
 193   0.0000       2.493950        67.8638 
 194   0.0000       2.502922        68.1080 
 195   0.0000       2.509961        68.2995 
 196   0.0000       2.522289        68.6350 
 197   0.0000       2.579427        70.1898 
 198   0.0000       2.590011        70.4778 
 199   0.0000       2.597033        70.6689 
 200   0.0000       2.611510        71.0628 
 201   0.0000       2.647906        72.0532 
 202   0.0000       2.675344        72.7998 
 203   0.0000       2.696285        73.3696 
 204   0.0000       2.705912        73.6316 
 205   0.0000       2.744778        74.6892 
 206   0.0000       2.808105        76.4124 
 207   0.0000       2.817512        76.6684 
 208   0.0000       2.826647        76.9170 
 209   0.0000       2.846803        77.4654 
 210   0.0000       2.884901        78.5021 
 211   0.0000       2.909767        79.1788 
 212   0.0000       3.012895        81.9850 
 213   0.0000       3.056997        83.1851 
 214   0.0000       3.155750        85.8723 
 215   0.0000       3.209151        87.3254 
 216   0.0000       3.268164        88.9313 
 217   0.0000       3.433058        93.4182 
 218   0.0000       3.487795        94.9077 
 219   0.0000       3.550828        96.6229 
 220   0.0000       3.580562        97.4320 
 221   0.0000       3.617230        98.4298 
 222   0.0000       3.787486       103.0627 
 223   0.0000       3.859380       105.0191 
 224   0.0000       3.931579       106.9837 
 225   0.0000       4.097257       111.4920 
 226   0.0000       4.253338       115.7392 
 227   0.0000       4.428104       120.4948 
 228   0.0000       4.507058       122.6433 
 229   0.0000       4.660255       126.8120 
 230   0.0000       4.794048       130.4527 
 231   0.0000       4.802692       130.6879 
 232   0.0000       4.840565       131.7185 
 233   0.0000       4.906550       133.5140 
 234   0.0000       4.992355       135.8489 
 235   0.0000       5.125857       139.4817 
 236   0.0000       5.268554       143.3646 
 237   0.0000       5.336441       145.2119 
 238   0.0000       5.460398       148.5850 
 239   0.0000       6.096779       165.9018 
 240   0.0000      11.075893       301.3904 
 241   0.0000      11.090930       301.7995 
 242   0.0000      11.095121       301.9136 
 243   0.0000      11.108390       302.2747 
 244   0.0000      11.116256       302.4887 
 245   0.0000      11.149635       303.3970 
 246   0.0000      11.209989       305.0393 
 247   0.0000      11.241139       305.8869 
 248   0.0000      11.269122       306.6484 
 249   0.0000      22.609379       615.2325 
 250   0.0000      25.231960       686.5965 
 251   0.0000      25.289602       688.1651 
 252   0.0000      25.315453       688.8685 
 253   0.0000      32.288089       878.6036 
 254   0.0000      35.658916       970.3284 
 255   0.0000      35.794166       974.0088 
 256   0.0000      35.879146       976.3212 
 257   0.0000      35.951174       978.2812 
 258   0.0000     123.677076      3365.4243 

                    ********************************
                    * MULLIKEN POPULATION ANALYSIS *
                    ********************************

-----------------------
MULLIKEN ATOMIC CHARGES
-----------------------
   0 C :   -0.310256
   1 N :   -0.254500
   2 H :    0.242056
   3 H :    0.302308
   4 H :    0.338736
   5 H :    0.176541
   6 H :    0.222409
   7 H :    0.160212
   8 Pb:    0.838009
   9 Cl:   -0.608281
  10 Cl:   -0.566689
  11 Cl:   -0.540546
Sum of atomic charges:   -0.0000000

--------------------------------
MULLIKEN REDUCED ORBITAL CHARGES
--------------------------------
  0 C s       :     3.288361  s :     3.288361
      pz      :     0.797913  p :     2.948543
      px      :     1.095666
      py      :     1.054964
      dz2     :     0.017169  d :     0.067557
      dxz     :     0.009895
      dyz     :     0.018245
      dx2y2   :     0.004519
      dxy     :     0.017728
      f0      :     0.001152  f :     0.005796
      f+1     :     0.000686
      f-1     :     0.001680
      f+2     :     0.000791
      f-2     :     0.000764
      f+3     :     0.000112
      f-3     :     0.000611
  1 N s       :     3.413915  s :     3.413915
      pz      :     1.266234  p :     3.795092
      px      :     1.272142
      py      :     1.256716
      dz2     :     0.009660  d :     0.043178
      dxz     :     0.006915
      dyz     :     0.014222
      dx2y2   :     0.006564
      dxy     :     0.005817
      f0      :     0.000413  f :     0.002315
      f+1     :     0.000303
      f-1     :     0.000492
      f+2     :     0.000226
      f-2     :     0.000210
      f+3     :     0.000452
      f-3     :     0.000219
  2 H s       :     0.711709  s :     0.711709
      pz      :     0.010219  p :     0.046235
      px      :     0.015186
      py      :     0.020831
  3 H s       :     0.667419  s :     0.667419
      pz      :     0.012045  p :     0.030272
      px      :     0.005371
      py      :     0.012857
  4 H s       :     0.633088  s :     0.633088
      pz      :     0.004761  p :     0.028177
      px      :     0.018403
      py      :     0.005013
  5 H s       :     0.799799  s :     0.799799
      pz      :     0.003268  p :     0.023659
      px      :     0.012808
      py      :     0.007583
  6 H s       :     0.754231  s :     0.754231
      pz      :     0.009773  p :     0.023360
      px      :     0.003750
      py      :     0.009837
  7 H s       :     0.818314  s :     0.818314
      pz      :     0.004285  p :     0.021474
      px      :     0.008038
      py      :     0.009151
  8 Pbs       :     3.970180  s :     3.970180
      pz      :     2.316961  p :     6.939908
      px      :     2.308965
      py      :     2.313982
      dz2     :     2.033793  d :    10.177177
      dxz     :     2.031056
      dyz     :     2.040917
      dx2y2   :     2.040231
      dxy     :     2.031179
      f0      :     0.005386  f :     0.074726
      f+1     :     0.008926
      f-1     :     0.006309
      f+2     :     0.015791
      f-2     :     0.009094
      f+3     :     0.013050
      f-3     :     0.016171
  9 Cls       :     5.953133  s :     5.953133
      pz      :     3.911233  p :    11.633670
      px      :     3.823004
      py      :     3.899433
      dz2     :     0.002252  d :     0.020643
      dxz     :     0.004474
      dyz     :     0.001973
      dx2y2   :     0.007717
      dxy     :     0.004227
      f0      :     0.000106  f :     0.000834
      f+1     :     0.000129
      f-1     :     0.000025
      f+2     :     0.000143
      f-2     :     0.000068
      f+3     :     0.000179
      f-3     :     0.000184
 10 Cls       :     5.947695  s :     5.947695
      pz      :     3.847562  p :    11.597498
      px      :     3.921896
      py      :     3.828040
      dz2     :     0.002847  d :     0.020505
      dxz     :     0.001147
      dyz     :     0.006600
      dx2y2   :     0.007202
      dxy     :     0.002708
      f0      :     0.000113  f :     0.000991
      f+1     :     0.000009
      f-1     :     0.000162
      f+2     :     0.000271
      f-2     :     0.000094
      f+3     :     0.000136
      f-3     :     0.000207
 11 Cls       :     5.948329  s :     5.948329
      pz      :     3.884931  p :    11.571028
      px      :     3.827424
      py      :     3.858673
      dz2     :     0.002386  d :     0.020157
      dxz     :     0.006926
      dyz     :     0.002933
      dx2y2   :     0.003121
      dxy     :     0.004792
      f0      :     0.000109  f :     0.001032
      f+1     :     0.000161
      f-1     :     0.000059
      f+2     :     0.000163
      f-2     :     0.000273
      f+3     :     0.000107
      f-3     :     0.000160


                     *******************************
                     * LOEWDIN POPULATION ANALYSIS *
                     *******************************

----------------------
LOEWDIN ATOMIC CHARGES
----------------------
   0 C :   -0.271601
   1 N :    0.138009
   2 H :    0.095507
   3 H :    0.227766
   4 H :    0.253313
   5 H :    0.113276
   6 H :    0.138426
   7 H :    0.123692
   8 Pb:   -0.173677
   9 Cl:   -0.234886
  10 Cl:   -0.212051
  11 Cl:   -0.197775

-------------------------------
LOEWDIN REDUCED ORBITAL CHARGES
-------------------------------
  0 C s       :     2.870419  s :     2.870419
      pz      :     0.895449  p :     3.090077
      px      :     1.118858
      py      :     1.075770
      dz2     :     0.079852  d :     0.277607
      dxz     :     0.043308
      dyz     :     0.080692
      dx2y2   :     0.017016
      dxy     :     0.056738
      f0      :     0.007620  f :     0.033497
      f+1     :     0.006358
      f-1     :     0.006879
      f+2     :     0.004920
      f-2     :     0.003452
      f+3     :     0.001494
      f-3     :     0.002776
  1 N s       :     2.987661  s :     2.987661
      pz      :     1.252757  p :     3.714258
      px      :     1.214317
      py      :     1.247183
      dz2     :     0.035079  d :     0.150215
      dxz     :     0.021476
      dyz     :     0.045038
      dx2y2   :     0.023536
      dxy     :     0.025087
      f0      :     0.001736  f :     0.009857
      f+1     :     0.002104
      f-1     :     0.001218
      f+2     :     0.001350
      f-2     :     0.001644
      f+3     :     0.001126
      f-3     :     0.000680
  2 H s       :     0.752038  s :     0.752038
      pz      :     0.034954  p :     0.152454
      px      :     0.051737
      py      :     0.065763
  3 H s       :     0.683847  s :     0.683847
      pz      :     0.032793  p :     0.088387
      px      :     0.016315
      py      :     0.039279
  4 H s       :     0.665846  s :     0.665846
      pz      :     0.012898  p :     0.080841
      px      :     0.053881
      py      :     0.014063
  5 H s       :     0.813942  s :     0.813942
      pz      :     0.011748  p :     0.072782
      px      :     0.037285
      py      :     0.023750
  6 H s       :     0.794682  s :     0.794682
      pz      :     0.027268  p :     0.066892
      px      :     0.011327
      py      :     0.028297
  7 H s       :     0.814351  s :     0.814351
      pz      :     0.012139  p :     0.061956
      px      :     0.023886
      py      :     0.025931
  8 Pbs       :     3.716477  s :     3.716477
      pz      :     2.439365  p :     7.443399
      px      :     2.514530
      py      :     2.489504
      dz2     :     2.113719  d :    10.766705
      dxz     :     2.141788
      dyz     :     2.167118
      dx2y2   :     2.193433
      dxy     :     2.150648
      f0      :     0.020787  f :     0.247097
      f+1     :     0.025839
      f-1     :     0.016053
      f+2     :     0.055427
      f-2     :     0.031445
      f+3     :     0.038743
      f-3     :     0.058803
  9 Cls       :     5.738167  s :     5.738167
      pz      :     3.855922  p :    11.446381
      px      :     3.770679
      py      :     3.819780
      dz2     :     0.005101  d :     0.047857
      dxz     :     0.011489
      dyz     :     0.002976
      dx2y2   :     0.020978
      dxy     :     0.007312
      f0      :     0.000343  f :     0.002481
      f+1     :     0.000265
      f-1     :     0.000044
      f+2     :     0.000527
      f-2     :     0.000175
      f+3     :     0.000581
      f-3     :     0.000546
 10 Cls       :     5.731041  s :     5.731041
      pz      :     3.793666  p :    11.431367
      px      :     3.853615
      py      :     3.784087
      dz2     :     0.004890  d :     0.046844
      dxz     :     0.001151
      dyz     :     0.015280
      dx2y2   :     0.021588
      dxy     :     0.003935
      f0      :     0.000431  f :     0.002799
      f+1     :     0.000008
      f-1     :     0.000193
      f+2     :     0.000946
      f-2     :     0.000152
      f+3     :     0.000267
      f-3     :     0.000801
 11 Cls       :     5.732127  s :     5.732127
      pz      :     3.830423  p :    11.419913
      px      :     3.782897
      py      :     3.806593
      dz2     :     0.002002  d :     0.043070
      dxz     :     0.019968
      dyz     :     0.006607
      dx2y2   :     0.005172
      dxy     :     0.009321
      f0      :     0.000324  f :     0.002664
      f+1     :     0.000332
      f-1     :     0.000110
      f+2     :     0.000425
      f-2     :     0.000932
      f+3     :     0.000102
      f-3     :     0.000439


                      *****************************
                      * MAYER POPULATION ANALYSIS *
                      *****************************

  NA   - Mulliken gross atomic population
  ZA   - Total nuclear charge
  QA   - Mulliken gross atomic charge
  VA   - Mayer's total valence
  BVA  - Mayer's bonded valence
  FA   - Mayer's free valence

  ATOM       NA         ZA         QA         VA         BVA        FA
  0 C      6.3103     6.0000    -0.3103     3.7168     3.7168     0.0000
  1 N      7.2545     7.0000    -0.2545     3.4843     3.4843     0.0000
  2 H      0.7579     1.0000     0.2421     1.0207     1.0207     0.0000
  3 H      0.6977     1.0000     0.3023     0.9050     0.9050    -0.0000
  4 H      0.6613     1.0000     0.3387     0.8873     0.8873     0.0000
  5 H      0.8235     1.0000     0.1765     0.9966     0.9966     0.0000
  6 H      0.7776     1.0000     0.2224     0.9741     0.9741     0.0000
  7 H      0.8398     1.0000     0.1602     0.9630     0.9630     0.0000
  8 Pb    21.1620    22.0000     0.8380     1.8957     1.8957    -0.0000
  9 Cl    17.6083    17.0000    -0.6083     0.6531     0.6531    -0.0000
 10 Cl    17.5667    17.0000    -0.5667     0.7289     0.7289     0.0000
 11 Cl    17.5405    17.0000    -0.5405     0.7871     0.7871    -0.0000

  Mayer bond orders larger than 0.1
B(  0-C ,  1-N ) :   0.8585 B(  0-C ,  5-H ) :   0.9566 B(  0-C ,  6-H ) :   0.9400 
B(  0-C ,  7-H ) :   0.9657 B(  1-N ,  2-H ) :   0.8958 B(  1-N ,  3-H ) :   0.8846 
B(  1-N ,  4-H ) :   0.8631 B(  2-H ,  9-Cl) :   0.1187 B(  8-Pb,  9-Cl) :   0.4699 
B(  8-Pb, 10-Cl) :   0.6589 B(  8-Pb, 11-Cl) :   0.7641 

-------
TIMINGS
-------

Total SCF time: 0 days 0 hours 5 min 35 sec 

Total time                  ....     335.427 sec
Sum of individual times     ....     315.938 sec  ( 94.2%)

Fock matrix formation       ....     310.054 sec  ( 92.4%)
  Coulomb formation         ....     241.355 sec  ( 77.8% of F)
  Split-RI-J                ....      20.405 sec  (  6.6% of F)
  Chain of spheres X        ....     239.473 sec  ( 77.2% of F)
  COS-X 1 center corr.      ....       0.000 sec  (  0.0% of F)
  XC integration            ....      68.752 sec  ( 22.2% of F)
    Basis function eval.    ....      33.226 sec  ( 48.3% of XC)
    Density eval.           ....      12.912 sec  ( 18.8% of XC)
    XC-Functional eval.     ....       3.612 sec  (  5.3% of XC)
    XC-Potential eval.      ....      17.854 sec  ( 26.0% of XC)
Diagonalization             ....       0.614 sec  (  0.2%)
Density matrix formation    ....       0.046 sec  (  0.0%)
Population analysis         ....       0.069 sec  (  0.0%)
Initial guess               ....       0.113 sec  (  0.0%)
Orbital Transformation      ....       0.000 sec  (  0.0%)
Orbital Orthonormalization  ....       0.110 sec  (  0.0%)
DIIS solution               ....       0.150 sec  (  0.0%)
SOSCF solution              ....       0.094 sec  (  0.0%)
Grid generation             ....       4.798 sec  (  1.4%)

------------------------------------------------------------------------------
                              ORCA MP2 CALCULATION
------------------------------------------------------------------------------


----------------------
RI-MP2 ENERGY+GRADIENT
----------------------
Dimension of the basis                    ...  259
Memory devoted to MP2                     ... 1000 MB   
Data format for buffers                   ... DOUBLE
Compression type for matrix containers    ... UNCOMPRESSED
Overall scaling of the MP2 energy         ...   2.700e-01 Eh
Calculating two index integrals           ... done (    0.011 sec)
Cholesky decomposition of the V-matrix    ... done
Cholesky decomposition of V**-1           ... done (    0.020 sec)

-----------------
RI-TRANSFORMATION (AUX index driven)
-----------------

Dimension of the orbital-basis         ... 259
Dimension of the aux-basis             ... 493
Transformation of internal MOs         ...    0-  45
Transformation of internal/external MOs...    0-  45 to   46- 258
Number Format for Storage              ... Double (8 Byte)
Integral mode                          ... Direct

First Phase: integral generation and transformation of MO indices
  Aux angular momentum 0               ... done (    0.436 sec)
  Aux angular momentum 1               ... done (    0.315 sec)
  Aux angular momentum 2               ... done (    0.352 sec)
  Aux angular momentum 3               ... done (    0.200 sec)
  Aux angular momentum 4               ... done (    0.169 sec)
Closing buffer VIJ ( 0.00 GB; CompressionRatio= 1.95)
Closing buffer VIA ( 0.04 GB; CompressionRatio= 1.00)
  Phase 1 completed in     1.573 sec
Second Phase: sorting and transformation of aux index

IJ-Transformation
Memory available                       ... 990 MB 
Max. # MO pairs treated in a batch     ... 46    
# of internal orbitals                 ... 46
# batches for internal orbitals        ... 1
Closing buffer IJV ( 0.00 GB; CompressionRatio= 1.00)
(ij|v) transformation done in     0.086 sec

IA-Transformation
Memory available                       ... 990 MB 
Max. # MO pairs treated in a batch     ... 46    
# of internal orbitals                 ... 46
# batches for internal orbitals        ... 1
Closing buffer IAV ( 0.04 GB; CompressionRatio= 1.00)
(ia|v) transformation done in     0.360 sec

  Phase 2 completed in     0.469 sec
RI-Integral transformation completed in     2.042 sec
Opening buffers                              ... done

Starting loop over batches of integrals:

Operator 0  - window                       ... (  0- 45)x( 46-258)
Operator 0  - Memory available             ...  1000 MB
Operator 0  - Memory needed per MO         ...   1.6 MB
Operator 0  - Number of orbitals per batch ... 46
Operator 0  - Number of batches            ... 1

OPERATOR  0   PASS   0:  MOs     0 ...   45
  Reading integrals       ... ok
  Internal MO   2
  Internal MO   5
  Internal MO   8
  Internal MO  11
  Internal MO  14
  Internal MO  17
  Internal MO  20
  Internal MO  23
  Internal MO  26
  Internal MO  29
  Internal MO  32
  Internal MO  35
  Internal MO  38
  Internal MO  41
  Internal MO  44
Closing buffer GIPV ( 0.04 GB; CompressionRatio= 1.00)
Time spent in pair loops =    39.902 sec

-----------------------------------------------
 RI-MP2 CORRELATION ENERGY:     -0.580701335 Eh
-----------------------------------------------


---------------------
MP2 DENSITY FORMATION
---------------------

Completing the external part of the density      ... done
Storing the unrelaxed density                    ... done

Calculating the xc-kernel                        ... done
Calculating G(D)                                 ... done
Completing the Lagrangian                        ... done
Solving the Z-vector equations                   ... 

------------------------------------------------------------------------------
                           ORCA CP-SCF CALCULATION
------------------------------------------------------------------------------

Input orbitals are from        ... PbMACl3_mp2_md_22.orca.gbw
Input Perturbation             ... PbMACl3_mp2_md_22.orca.pin.tmp
Wavefunction output            ... PbMACl3_mp2_md_22.orca.pout.tmp
Perturbation mode              ... Real perturbation
Solver                         ... DIIS
   MaxDIIS                     ... 20
   Levelshift                  ...    3.000e-01 Eh
Max. number of iterations      ... 128
Convergence tolerance          ... 1.000e-08
Integral handling              ... Direct
COSX GridX                     ... 1
Number of perturbations        ... 1
Number of operators            ... 1
Orbital ranges used for CP-SCF:
 Operator 0:  Orbitals   0... 45  to  46...258
DFT calculation                         ... on
Exchange functional (SCF)               ... B88
Exchange functional (CP-SCF)            ... B88
   X-Alpha parameter    XAlpha (SCF)    ...  0.666667
   X-Alpha parameter    XAlpha (CP-SCF) ...  0.666667
   Becke's b parameter  XBeta (SCF)     ...  0.004200
   Becke's b parameter  XBeta (CP-SCF)  ...  0.004200
Correlation functional (SCF)            ... LYP
Correlation functional (CP-SCF)         ... LYP
 LDA part of GGA corr.  LDAOpt (SCF)    ... VWN-3
 LDA part of GGA corr.  LDAOpt (CP-SCF) ... VWN-3
Hybrid DFT                              ... on
   Exchange mixing (SCF)                ...  0.530
   Exchange mixing (CP-SCF)             ...  0.530
   GGA exch. scaling(SCF)               ...  0.470
   GGA exch. scaling (CP-SCF)           ...  0.470
   GGA corr. scaling (SCF)              ...  0.730
   GGA corr. scaling (CP-SCF)           ...  0.730
The RIJCOSX approximation is active
Variables per vector in CP-SCF ... 9798
Number of vectors sought       ... 1
Calculating the xc-kernel      ... done

Solving the CP-SCF equations by a DIIS algorithm

-----------------
CP-SCF ITERATIONS
-----------------
  Iteration   0: MaxR=  0.084422969
  Iteration   1: MaxR=  0.037931082
  Iteration   2: MaxR=  0.011839567
  Iteration   3: MaxR=  0.005547049
  Iteration   4: MaxR=  0.003483138
  Iteration   5: MaxR=  0.001754771
  Iteration   6: MaxR=  0.000784093
  Iteration   7: MaxR=  0.000256565
  Iteration   8: MaxR=  0.000113723
  Iteration   9: MaxR=  0.000044297
  Iteration  10: MaxR=  0.000018194
  Iteration  11: MaxR=  0.000006767
  Iteration  12: MaxR=  0.000003180
  Iteration  13: MaxR=  0.000001326
  Iteration  14: MaxR=  0.000000571
  Iteration  15: MaxR=  0.000000217
  Iteration  16: MaxR=  0.000000080
  Iteration  17: MaxR=  0.000000036
  Iteration  18: MaxR=  0.000000015
  Iteration  19: MaxR=  0.000000005
                              *** THE CP-SCF HAS CONVERGED *** 
done
Finalizing the relaxed density                   ... done
Transforming P to the AO basis                   ... done
Storing the relaxed density                      ... done

------------------------------------
ENERGY WEIGHTED DENSITY FINALIZATION
------------------------------------

Gathering the parts of the W-matrix              ... done
Forming the Z-density                            ... done
Transforming Z to the AO basis                   ... done
Calculating G(Z)                                 ... done
Finalizing the W-matrix                          ... done
Transforming W to the AO basis and storing       ... done
Entering the RIJONX and RIJCOSX sections
Starting the three-index derivative integrals:
Operator 0  - Memory available             ...  1000 MB
Operator 0  - Memory needed per MO         ...   1.0 MB
Operator 0  - Number of orbitals per batch ... 46
Operator 0  - Number of batches            ... 1

OPERATOR  0   PASS   0:  MOs     0 ...   45

----------------------------------
MP2 DERIVATIVE INTEGRAL GENERATION
----------------------------------


Input Correlated Electron Density   ... PbMACl3_mp2_md_22.orca.pmp2re
Input Energy Weighted Density       ... PbMACl3_mp2_md_22.orca.wmp2.tmp
Input SCF Electron Density          ... PbMACl3_mp2_md_22.orca.scfp.tmp

One-Electron Terms    ...
  ECP gradient                                           ... One-Electron Terms done

-----------------------------------------------------------
MP2 COSX Grid Generation
-----------------------------------------------------------

General Integration Accuracy     IntAcc      ...  4.340
Radial Grid Type                 RadialGrid  ... Gauss-Chebyshev
Angular Grid (max. acc.)         AngularGrid ... Lebedev-302
Angular grid pruning method      GridPruning ... 3 (G Style)
Weight generation scheme         WeightScheme... Becke
Basis function cutoff            BFCut       ...    1.0000e-11
Integration weight cutoff        WCut        ...    1.0000e-14
Grids for H and He will be reduced by one unit

# of grid points (after initial pruning)     ...  57718 (   0.0 sec)
# of grid points (after weights+screening)   ...  54509 (   0.1 sec)
nearest neighbour list constructed           ...    0.0 sec
Grid point re-assignment to atoms done       ...    0.0 sec
Grid point division into batches done        ...    0.2 sec
Reduced shell lists constructed in    1.4 sec

Total number of grid points                  ...    54509
Total number of batches                      ...      857
Average number of points per batch           ...       63
Average number of grid points per atom       ...     4542
Average number of shells per batch           ...    54.20 (53.66%)
Average number of basis functions per batch  ...   142.75 (55.12%)
Average number of large shells per batch     ...    40.94 (75.54%)
Average number of large basis fcns per batch ...   106.23 (74.42%)
Maximum spatial batch extension              ...  29.59, 31.14, 40.43 au
Average spatial batch extension              ...   3.01,  3.16,  3.29 au

Overlap Fitting                  UseSFitting ... on
Two electron COSX terms .... 
Integration Timings:
Total Time                  =    76.2 sec
Basis fcn evaluation        =     0.6 sec
Density evaluation          =     0.8 sec
Integral evaluation         =    73.3 sec
K(P) evaluation             =     0.6 sec
                          .... COSX two electron terms done
COSX two-electron contribution to the gradient
     0:     0.000912    -0.067795     0.050314
     1:     0.039292     0.017280    -0.052080
     2:    -0.156202    -0.155403     0.049072
     3:    -0.055129     0.148782     0.131021
     4:     0.201652    -0.044497    -0.018886
     5:    -0.133244     0.103337     0.035832
     6:     0.003343    -0.113171    -0.137153
     7:     0.100585     0.116315    -0.053526
     8:     0.027460    -0.000001    -0.009186
     9:     0.035466    -0.018838     0.000396
    10:    -0.008296     0.051158    -0.034387
    11:    -0.055294    -0.037022     0.038565
Exchange-correlation gradient    ... done
Dispersion correction            ... 
Entering the calculation of the dispersion correction...

Checking the input atom types...

Done
done

                *********************************************
                * UNRELAXED MP2 DENSITY POPULATION ANALYSIS *
                *********************************************

------------------------------------------------------------------------------
                           ORCA POPULATION ANALYSIS
------------------------------------------------------------------------------
Input electron density              ... PbMACl3_mp2_md_22.orca.pmp2ur
BaseName (.gbw .S,...)              ... PbMACl3_mp2_md_22.orca

                    ********************************
                    * MULLIKEN POPULATION ANALYSIS *
                    ********************************

-----------------------
MULLIKEN ATOMIC CHARGES
-----------------------
   0 C :   -0.315575
   1 N :   -0.253114
   2 H :    0.241797
   3 H :    0.302085
   4 H :    0.338439
   5 H :    0.177318
   6 H :    0.222942
   7 H :    0.161180
   8 Pb:    0.821553
   9 Cl:   -0.602437
  10 Cl:   -0.560385
  11 Cl:   -0.533805
Sum of atomic charges:   -0.0000000

--------------------------------
MULLIKEN REDUCED ORBITAL CHARGES
--------------------------------
  0 C s       :     3.287124  s :     3.287124
      pz      :     0.798160  p :     2.945059
      px      :     1.093670
      py      :     1.053228
      dz2     :     0.018641  d :     0.076461
      dxz     :     0.011745
      dyz     :     0.019714
      dx2y2   :     0.006737
      dxy     :     0.019624
      f0      :     0.001314  f :     0.006930
      f+1     :     0.000842
      f-1     :     0.001824
      f+2     :     0.000946
      f-2     :     0.000939
      f+3     :     0.000293
      f-3     :     0.000772
  1 N s       :     3.411905  s :     3.411905
      pz      :     1.261882  p :     3.784533
      px      :     1.268946
      py      :     1.253705
      dz2     :     0.011713  d :     0.053350
      dxz     :     0.009056
      dyz     :     0.016210
      dx2y2   :     0.008591
      dxy     :     0.007781
      f0      :     0.000560  f :     0.003327
      f+1     :     0.000445
      f-1     :     0.000636
      f+2     :     0.000370
      f-2     :     0.000358
      f+3     :     0.000593
      f-3     :     0.000364
  2 H s       :     0.711411  s :     0.711411
      pz      :     0.010470  p :     0.046792
      px      :     0.015345
      py      :     0.020976
  3 H s       :     0.667051  s :     0.667051
      pz      :     0.012232  p :     0.030864
      px      :     0.005615
      py      :     0.013017
  4 H s       :     0.632881  s :     0.632881
      pz      :     0.005002  p :     0.028680
      px      :     0.018436
      py      :     0.005242
  5 H s       :     0.798014  s :     0.798014
      pz      :     0.003664  p :     0.024668
      px      :     0.013088
      py      :     0.007916
  6 H s       :     0.752767  s :     0.752767
      pz      :     0.010047  p :     0.024291
      px      :     0.004105
      py      :     0.010138
  7 H s       :     0.816315  s :     0.816315
      pz      :     0.004646  p :     0.022506
      px      :     0.008389
      py      :     0.009471
  8 Pbs       :     3.947665  s :     3.947665
      pz      :     2.328031  p :     6.971069
      px      :     2.318777
      py      :     2.324262
      dz2     :     2.027979  d :    10.148577
      dxz     :     2.025414
      dyz     :     2.034924
      dx2y2   :     2.034647
      dxy     :     2.025612
      f0      :     0.010563  f :     0.111135
      f+1     :     0.014179
      f-1     :     0.011595
      f+2     :     0.020915
      f-2     :     0.014281
      f+3     :     0.018317
      f-3     :     0.021286
  9 Cls       :     5.948608  s :     5.948608
      pz      :     3.896641  p :    11.589637
      px      :     3.808423
      py      :     3.884573
      dz2     :     0.010183  d :     0.060579
      dxz     :     0.012466
      dyz     :     0.009940
      dx2y2   :     0.015716
      dxy     :     0.012275
      f0      :     0.000493  f :     0.003613
      f+1     :     0.000525
      f-1     :     0.000409
      f+2     :     0.000542
      f-2     :     0.000464
      f+3     :     0.000587
      f-3     :     0.000593
 10 Cls       :     5.943079  s :     5.943079
      pz      :     3.833058  p :    11.553870
      px      :     3.907396
      py      :     3.813416
      dz2     :     0.010643  d :     0.059704
      dxz     :     0.008917
      dyz     :     0.014441
      dx2y2   :     0.015043
      dxy     :     0.010660
      f0      :     0.000495  f :     0.003732
      f+1     :     0.000383
      f-1     :     0.000565
      f+2     :     0.000660
      f-2     :     0.000486
      f+3     :     0.000538
      f-3     :     0.000604
 11 Cls       :     5.943654  s :     5.943654
      pz      :     3.870322  p :    11.527542
      px      :     3.812978
      py      :     3.844242
      dz2     :     0.010195  d :     0.058858
      dxz     :     0.014648
      dyz     :     0.010647
      dx2y2   :     0.010873
      dxy     :     0.012496
      f0      :     0.000497  f :     0.003750
      f+1     :     0.000559
      f-1     :     0.000443
      f+2     :     0.000552
      f-2     :     0.000658
      f+3     :     0.000497
      f-3     :     0.000545


                     *******************************
                     * LOEWDIN POPULATION ANALYSIS *
                     *******************************

----------------------
LOEWDIN ATOMIC CHARGES
----------------------
   0 C :   -0.275398
   1 N :    0.137792
   2 H :    0.095704
   3 H :    0.227629
   4 H :    0.253113
   5 H :    0.113898
   6 H :    0.139014
   7 H :    0.124373
   8 Pb:   -0.185122
   9 Cl:   -0.230727
  10 Cl:   -0.207528
  11 Cl:   -0.192749

-------------------------------
LOEWDIN REDUCED ORBITAL CHARGES
-------------------------------
  0 C s       :     2.869805  s :     2.869805
      pz      :     0.894233  p :     3.083446
      px      :     1.116034
      py      :     1.073180
      dz2     :     0.081415  d :     0.286917
      dxz     :     0.045044
      dyz     :     0.082384
      dx2y2   :     0.019186
      dxy     :     0.058887
      f0      :     0.007844  f :     0.035230
      f+1     :     0.006584
      f-1     :     0.007217
      f+2     :     0.005133
      f-2     :     0.003706
      f+3     :     0.001715
      f-3     :     0.003031
  1 N s       :     2.987073  s :     2.987073
      pz      :     1.248304  p :     3.703177
      px      :     1.211073
      py      :     1.243799
      dz2     :     0.037321  d :     0.160836
      dxz     :     0.023497
      dyz     :     0.047203
      dx2y2   :     0.025583
      dxy     :     0.027232
      f0      :     0.001910  f :     0.011122
      f+1     :     0.002282
      f-1     :     0.001423
      f+2     :     0.001520
      f-2     :     0.001815
      f+3     :     0.001318
      f-3     :     0.000854
  2 H s       :     0.750570  s :     0.750570
      pz      :     0.035229  p :     0.153726
      px      :     0.052172
      py      :     0.066325
  3 H s       :     0.682641  s :     0.682641
      pz      :     0.033286  p :     0.089730
      px      :     0.016646
      py      :     0.039798
  4 H s       :     0.664891  s :     0.664891
      pz      :     0.013198  p :     0.081995
      px      :     0.054410
      py      :     0.014388
  5 H s       :     0.811469  s :     0.811469
      pz      :     0.012257  p :     0.074634
      px      :     0.038047
      py      :     0.024330
  6 H s       :     0.792367  s :     0.792367
      pz      :     0.027919  p :     0.068619
      px      :     0.011749
      py      :     0.028951
  7 H s       :     0.811780  s :     0.811780
      pz      :     0.012627  p :     0.063846
      px      :     0.024581
      py      :     0.026638
  8 Pbs       :     3.697612  s :     3.697612
      pz      :     2.449328  p :     7.470153
      px      :     2.522576
      py      :     2.498250
      dz2     :     2.107330  d :    10.734520
      dxz     :     2.135668
      dyz     :     2.159935
      dx2y2   :     2.187113
      dxy     :     2.144473
      f0      :     0.026028  f :     0.282837
      f+1     :     0.031038
      f-1     :     0.021341
      f+2     :     0.060282
      f-2     :     0.036645
      f+3     :     0.043921
      f-3     :     0.063583
  9 Cls       :     5.733830  s :     5.733830
      pz      :     3.841681  p :    11.403856
      px      :     3.756745
      py      :     3.805429
      dz2     :     0.013071  d :     0.087714
      dxz     :     0.019388
      dyz     :     0.010963
      dx2y2   :     0.028940
      dxy     :     0.015353
      f0      :     0.000737  f :     0.005327
      f+1     :     0.000672
      f-1     :     0.000433
      f+2     :     0.000936
      f-2     :     0.000577
      f+3     :     0.001003
      f-3     :     0.000970
 10 Cls       :     5.726700  s :     5.726700
      pz      :     3.779613  p :    11.389235
      px      :     3.839523
      py      :     3.770100
      dz2     :     0.012644  d :     0.085978
      dxz     :     0.008926
      dyz     :     0.023154
      dx2y2   :     0.029412
      dxy     :     0.011842
      f0      :     0.000824  f :     0.005614
      f+1     :     0.000383
      f-1     :     0.000606
      f+2     :     0.001357
      f-2     :     0.000551
      f+3     :     0.000681
      f-3     :     0.001213
 11 Cls       :     5.727732  s :     5.727732
      pz      :     3.816287  p :    11.377843
      px      :     3.768981
      py      :     3.792574
      dz2     :     0.009772  d :     0.081719
      dxz     :     0.027690
      dyz     :     0.014318
      dx2y2   :     0.012883
      dxy     :     0.017056
      f0      :     0.000721  f :     0.005455
      f+1     :     0.000739
      f-1     :     0.000497
      f+2     :     0.000826
      f-2     :     0.001338
      f+3     :     0.000497
      f-3     :     0.000836


                      *****************************
                      * MAYER POPULATION ANALYSIS *
                      *****************************

  NA   - Mulliken gross atomic population
  ZA   - Total nuclear charge
  QA   - Mulliken gross atomic charge
  VA   - Mayer's total valence
  BVA  - Mayer's bonded valence
  FA   - Mayer's free valence

  ATOM       NA         ZA         QA         VA         BVA        FA
  0 C      6.3156     6.0000    -0.3156     3.7678     3.6491     0.1187
  1 N      7.2531     7.0000    -0.2531     3.5535     3.4161     0.1374
  2 H      0.7582     1.0000     0.2418     1.0230     1.0059     0.0171
  3 H      0.6979     1.0000     0.3021     0.9069     0.8876     0.0194
  4 H      0.6616     1.0000     0.3384     0.8890     0.8701     0.0190
  5 H      0.8227     1.0000     0.1773     0.9991     0.9809     0.0182
  6 H      0.7771     1.0000     0.2229     0.9763     0.9580     0.0184
  7 H      0.8388     1.0000     0.1612     0.9657     0.9467     0.0190
  8 Pb    21.1784    22.0000     0.8216     2.2182     1.8394     0.3788
  9 Cl    17.6024    17.0000    -0.6024     0.8971     0.6340     0.2631
 10 Cl    17.5604    17.0000    -0.5604     0.9694     0.7065     0.2628
 11 Cl    17.5338    17.0000    -0.5338     1.0252     0.7624     0.2628

  Mayer bond orders larger than 0.1
B(  0-C ,  1-N ) :   0.8361 B(  0-C ,  5-H ) :   0.9424 B(  0-C ,  6-H ) :   0.9250 
B(  0-C ,  7-H ) :   0.9501 B(  1-N ,  2-H ) :   0.8838 B(  1-N ,  3-H ) :   0.8680 
B(  1-N ,  4-H ) :   0.8467 B(  2-H ,  9-Cl) :   0.1163 B(  8-Pb,  9-Cl) :   0.4560 
B(  8-Pb, 10-Cl) :   0.6393 B(  8-Pb, 11-Cl) :   0.7411 


                *******************************************
                * RELAXED MP2 DENSITY POPULATION ANALYSIS *
                *******************************************

------------------------------------------------------------------------------
                           ORCA POPULATION ANALYSIS
------------------------------------------------------------------------------
Input electron density              ... PbMACl3_mp2_md_22.orca.pmp2re
BaseName (.gbw .S,...)              ... PbMACl3_mp2_md_22.orca

                    ********************************
                    * MULLIKEN POPULATION ANALYSIS *
                    ********************************

-----------------------
MULLIKEN ATOMIC CHARGES
-----------------------
   0 C :   -0.332650
   1 N :   -0.250586
   2 H :    0.239650
   3 H :    0.300935
   4 H :    0.336366
   5 H :    0.179492
   6 H :    0.223456
   7 H :    0.164867
   8 Pb:    0.763653
   9 Cl:   -0.579445
  10 Cl:   -0.536674
  11 Cl:   -0.509065
Sum of atomic charges:   -0.0000000

--------------------------------
MULLIKEN REDUCED ORBITAL CHARGES
--------------------------------
  0 C s       :     3.289487  s :     3.289487
      pz      :     0.806164  p :     2.964203
      px      :     1.098803
      py      :     1.059237
      dz2     :     0.017699  d :     0.072199
      dxz     :     0.011539
      dyz     :     0.018080
      dx2y2   :     0.006543
      dxy     :     0.018338
      f0      :     0.001287  f :     0.006761
      f+1     :     0.000815
      f-1     :     0.001774
      f+2     :     0.000921
      f-2     :     0.000921
      f+3     :     0.000288
      f-3     :     0.000754
  1 N s       :     3.412742  s :     3.412742
      pz      :     1.257966  p :     3.782810
      px      :     1.269929
      py      :     1.254916
      dz2     :     0.011372  d :     0.051767
      dxz     :     0.009090
      dyz     :     0.015713
      dx2y2   :     0.008168
      dxy     :     0.007423
      f0      :     0.000556  f :     0.003267
      f+1     :     0.000438
      f-1     :     0.000617
      f+2     :     0.000369
      f-2     :     0.000354
      f+3     :     0.000577
      f-3     :     0.000356
  2 H s       :     0.714066  s :     0.714066
      pz      :     0.010438  p :     0.046284
      px      :     0.015157
      py      :     0.020689
  3 H s       :     0.668622  s :     0.668622
      pz      :     0.012017  p :     0.030442
      px      :     0.005655
      py      :     0.012771
  4 H s       :     0.635417  s :     0.635417
      pz      :     0.005050  p :     0.028217
      px      :     0.017874
      py      :     0.005293
  5 H s       :     0.796216  s :     0.796216
      pz      :     0.003748  p :     0.024292
      px      :     0.012765
      py      :     0.007779
  6 H s       :     0.752634  s :     0.752634
      pz      :     0.009751  p :     0.023910
      px      :     0.004183
      py      :     0.009976
  7 H s       :     0.812986  s :     0.812986
      pz      :     0.004667  p :     0.022146
      px      :     0.008243
      py      :     0.009236
  8 Pbs       :     3.953870  s :     3.953870
      pz      :     2.341808  p :     7.026275
      px      :     2.341465
      py      :     2.343002
      dz2     :     2.028073  d :    10.147413
      dxz     :     2.024266
      dyz     :     2.034465
      dx2y2   :     2.033642
      dxy     :     2.026967
      f0      :     0.010298  f :     0.108789
      f+1     :     0.013933
      f-1     :     0.011424
      f+2     :     0.020349
      f-2     :     0.013979
      f+3     :     0.018039
      f-3     :     0.020766
  9 Cls       :     5.949155  s :     5.949155
      pz      :     3.887872  p :    11.565791
      px      :     3.802290
      py      :     3.875629
      dz2     :     0.010185  d :     0.060876
      dxz     :     0.012580
      dyz     :     0.009982
      dx2y2   :     0.015910
      dxy     :     0.012219
      f0      :     0.000494  f :     0.003624
      f+1     :     0.000527
      f-1     :     0.000410
      f+2     :     0.000544
      f-2     :     0.000466
      f+3     :     0.000589
      f-3     :     0.000595
 10 Cls       :     5.943739  s :     5.943739
      pz      :     3.823978  p :    11.529407
      px      :     3.900763
      py      :     3.804666
      dz2     :     0.010648  d :     0.059788
      dxz     :     0.008903
      dyz     :     0.014334
      dx2y2   :     0.015180
      dxy     :     0.010722
      f0      :     0.000494  f :     0.003740
      f+1     :     0.000384
      f-1     :     0.000568
      f+2     :     0.000658
      f-2     :     0.000489
      f+3     :     0.000544
      f-3     :     0.000604
 11 Cls       :     5.944406  s :     5.944406
      pz      :     3.859924  p :    11.502059
      px      :     3.806184
      py      :     3.835951
      dz2     :     0.010179  d :     0.058841
      dxz     :     0.014765
      dyz     :     0.010649
      dx2y2   :     0.010897
      dxy     :     0.012350
      f0      :     0.000496  f :     0.003759
      f+1     :     0.000563
      f-1     :     0.000444
      f+2     :     0.000555
      f-2     :     0.000657
      f+3     :     0.000500
      f-3     :     0.000544


                     *******************************
                     * LOEWDIN POPULATION ANALYSIS *
                     *******************************

----------------------
LOEWDIN ATOMIC CHARGES
----------------------
   0 C :   -0.285761
   1 N :    0.135467
   2 H :    0.095168
   3 H :    0.228320
   4 H :    0.253186
   5 H :    0.115158
   6 H :    0.140133
   7 H :    0.126301
   8 Pb:   -0.219086
   9 Cl:   -0.218015
  10 Cl:   -0.193540
  11 Cl:   -0.177331

-------------------------------
LOEWDIN REDUCED ORBITAL CHARGES
-------------------------------
  0 C s       :     2.871788  s :     2.871788
      pz      :     0.899595  p :     3.096864
      px      :     1.120075
      py      :     1.077194
      dz2     :     0.080151  d :     0.282158
      dxz     :     0.044653
      dyz     :     0.080761
      dx2y2   :     0.018977
      dxy     :     0.057617
      f0      :     0.007784  f :     0.034952
      f+1     :     0.006533
      f-1     :     0.007129
      f+2     :     0.005110
      f-2     :     0.003672
      f+3     :     0.001713
      f-3     :     0.003012
  1 N s       :     2.988391  s :     2.988391
      pz      :     1.246830  p :     3.704770
      px      :     1.212790
      py      :     1.245150
      dz2     :     0.037318  d :     0.160221
      dxz     :     0.023654
      dyz     :     0.046958
      dx2y2   :     0.025340
      dxy     :     0.026951
      f0      :     0.001916  f :     0.011152
      f+1     :     0.002302
      f-1     :     0.001425
      f+2     :     0.001529
      f-2     :     0.001816
      f+3     :     0.001314
      f-3     :     0.000850
  2 H s       :     0.751149  s :     0.751149
      pz      :     0.035116  p :     0.153684
      px      :     0.052132
      py      :     0.066435
  3 H s       :     0.682234  s :     0.682234
      pz      :     0.033093  p :     0.089445
      px      :     0.016693
      py      :     0.039660
  4 H s       :     0.665349  s :     0.665349
      pz      :     0.013235  p :     0.081465
      px      :     0.053754
      py      :     0.014476
  5 H s       :     0.810061  s :     0.810061
      pz      :     0.012493  p :     0.074782
      px      :     0.037985
      py      :     0.024304
  6 H s       :     0.791212  s :     0.791212
      pz      :     0.027747  p :     0.068655
      px      :     0.011913
      py      :     0.028995
  7 H s       :     0.809658  s :     0.809658
      pz      :     0.012798  p :     0.064041
      px      :     0.024633
      py      :     0.026610
  8 Pbs       :     3.705569  s :     3.705569
      pz      :     2.458307  p :     7.506865
      px      :     2.537929
      py      :     2.510629
      dz2     :     2.106561  d :    10.727419
      dxz     :     2.133824
      dyz     :     2.157868
      dx2y2   :     2.184766
      dxy     :     2.144400
      f0      :     0.025551  f :     0.279234
      f+1     :     0.030617
      f-1     :     0.020878
      f+2     :     0.059638
      f-2     :     0.036081
      f+3     :     0.043494
      f-3     :     0.062975
  9 Cls       :     5.736769  s :     5.736769
      pz      :     3.835175  p :    11.387080
      px      :     3.752874
      py      :     3.799031
      dz2     :     0.013256  d :     0.088768
      dxz     :     0.019494
      dyz     :     0.011051
      dx2y2   :     0.029398
      dxy     :     0.015569
      f0      :     0.000741  f :     0.005398
      f+1     :     0.000687
      f-1     :     0.000435
      f+2     :     0.000941
      f-2     :     0.000583
      f+3     :     0.001018
      f-3     :     0.000992
 10 Cls       :     5.729607  s :     5.729607
      pz      :     3.772508  p :    11.371204
      px      :     3.834695
      py      :     3.764002
      dz2     :     0.012671  d :     0.087033
      dxz     :     0.008963
      dyz     :     0.023597
      dx2y2   :     0.029747
      dxy     :     0.012054
      f0      :     0.000835  f :     0.005695
      f+1     :     0.000384
      f-1     :     0.000612
      f+2     :     0.001387
      f-2     :     0.000559
      f+3     :     0.000694
      f-3     :     0.001225
 11 Cls       :     5.730770  s :     5.730770
      pz      :     3.807736  p :    11.358267
      px      :     3.764449
      py      :     3.786082
      dz2     :     0.009810  d :     0.082754
      dxz     :     0.028102
      dyz     :     0.014518
      dx2y2   :     0.013058
      dxy     :     0.017266
      f0      :     0.000734  f :     0.005541
      f+1     :     0.000745
      f-1     :     0.000501
      f+2     :     0.000837
      f-2     :     0.001367
      f+3     :     0.000505
      f-3     :     0.000852


                      *****************************
                      * MAYER POPULATION ANALYSIS *
                      *****************************

  NA   - Mulliken gross atomic population
  ZA   - Total nuclear charge
  QA   - Mulliken gross atomic charge
  VA   - Mayer's total valence
  BVA  - Mayer's bonded valence
  FA   - Mayer's free valence

  ATOM       NA         ZA         QA         VA         BVA        FA
  0 C      6.3327     6.0000    -0.3327     3.7656     3.6472     0.1184
  1 N      7.2506     7.0000    -0.2506     3.5558     3.4187     0.1371
  2 H      0.7604     1.0000     0.2396     1.0294     1.0124     0.0170
  3 H      0.6991     1.0000     0.3009     0.9079     0.8886     0.0193
  4 H      0.6636     1.0000     0.3364     0.8914     0.8725     0.0189
  5 H      0.8205     1.0000     0.1795     1.0015     0.9834     0.0181
  6 H      0.7765     1.0000     0.2235     0.9808     0.9625     0.0183
  7 H      0.8351     1.0000     0.1649     0.9638     0.9448     0.0189
  8 Pb    21.2363    22.0000     0.7637     2.3113     1.9382     0.3731
  9 Cl    17.5794    17.0000    -0.5794     0.9424     0.6807     0.2617
 10 Cl    17.5367    17.0000    -0.5367     1.0136     0.7523     0.2613
 11 Cl    17.5091    17.0000    -0.5091     1.0704     0.8094     0.2610

  Mayer bond orders larger than 0.1
B(  0-C ,  1-N ) :   0.8444 B(  0-C ,  5-H ) :   0.9394 B(  0-C ,  6-H ) :   0.9216 
B(  0-C ,  7-H ) :   0.9463 B(  1-N ,  2-H ) :   0.8798 B(  1-N ,  3-H ) :   0.8658 
B(  1-N ,  4-H ) :   0.8464 B(  2-H ,  9-Cl) :   0.1260 B(  8-Pb,  9-Cl) :   0.4782 
B(  8-Pb, 10-Cl) :   0.6731 B(  8-Pb, 11-Cl) :   0.7810 


-------
TIMINGS
-------

Total time                :  456.653 sec
Integral trafo            :    2.053 sec (  0.4%)
I/O of integrals          :    0.110 sec (  0.0%)
K(i,j) Operators          :    5.525 sec (  1.2%)
T(i,j) pair energies      :    1.029 sec (  0.2%)
V-calculation             :    0.011 sec (  0.0%)
V**(-1/2)                 :    0.020 sec (  0.0%)
Gamma(ia|P)               :    5.131 sec (  1.1%)
Gamma-Trafo               :    0.727 sec (  0.2%)
D(virtual)                :    2.343 sec (  0.5%)
D(internal)               :    3.226 sec (  0.7%)
W(virtual)                :    4.681 sec (  1.0%)
W(internal)               :   12.304 sec (  2.7%)
L(virtual)                :    4.388 sec (  1.0%)
L(internal)               :    0.216 sec (  0.0%)
G(D)                      :   12.412 sec (  2.7%)
G(Z)                      :   12.504 sec (  2.7%)
Z-Vector Solution         :  295.924 sec ( 64.8%)
Z-Vector Solution         :  295.924 sec ( 64.8%)
3-Index Derivative 
+ Separable RIJ part      :    3.718 sec (  0.8%)
2-Index Derivative 
+ Separable RIJ part      :    0.025 sec (  0.0%)
Separable Gradient (COSX) :   88.890 sec ( 19.5%)


---------------------------------------
MP2 TOTAL ENERGY:    -1669.511687609 Eh
---------------------------------------

The final MP2 gradient
  0:  -0.03665188  -0.00269605   0.01215669
  1:  -0.13050855  -0.15704100   0.03199099
  2:   0.08702863   0.13708105  -0.02753314
  3:  -0.02104971   0.02697357   0.01660525
  4:   0.06039563  -0.00636351  -0.01281209
  5:   0.03044237  -0.00088819   0.00718466
  6:   0.00955526  -0.00856065  -0.01917142
  7:  -0.00167249   0.00719626  -0.00656406
  8:   0.01835747   0.03435484   0.03457331
  9:  -0.04184073   0.00788864  -0.02041368
 10:   0.00386818  -0.04514823   0.00946319
 11:   0.02270009   0.00737378  -0.02554649

-----------------------------------
NORM OF THE MP2 GRADIENT:  0.294201
-----------------------------------

Entering the calculation of the dispersion correction...

Checking the input atom types...

Done


-------------------------------------------------------------------------------
                          DFT DISPERSION CORRECTION                            
                                                                               
                                DFTD3 V2.1  Rev 6                               
                          USING Becke-Johnson damping                          
-------------------------------------------------------------------------------
The B2PLYP functional is recognized
Active option DFTDOPT                   ...         4   

molecular C6(AA) [au] = 4870.894842 


            DFT-D V3
 parameters
 s6 scaling factor         :     0.6400 
 a1 scaling factor         :     0.3065 
 s8 scaling factor         :     0.9147 
 a2 scaling factor         :     5.0570 
 ad hoc parameters k1-k3   :    16.0000     1.3333    -4.0000 

 Edisp/kcal,au: -7.948634912545  -0.012666954673 
 E6   /kcal   :  -3.615653999 
 E8   /kcal   :  -4.332980914 
 % E8         :  54.512264831 

-------------------------   ----------------
Dispersion correction           -0.012666955
-------------------------   ----------------


-------------------------   --------------------
FINAL SINGLE POINT ENERGY     -1669.524354563436
-------------------------   --------------------


                            ***************************************
                            *     ORCA property calculations      *
                            ***************************************


  WARNING: The energy has been calculated at the MP2 level but the densities
           used in the property calculations are still SCF densities
           MP2 response densities have not been calculated 
           use %mp2 Density relaxed end
           or  %mp2 Density unrelaxed end

                                    ---------------------
                                    Active property flags
                                    ---------------------
   (+) Dipole Moment


------------------------------------------------------------------------------
                       ORCA ELECTRIC PROPERTIES CALCULATION
------------------------------------------------------------------------------

Dipole Moment Calculation                       ... on
Quadrupole Moment Calculation                   ... off
Polarizability Calculation                      ... off
GBWName                                         ... PbMACl3_mp2_md_22.orca.gbw
Electron density file                           ... PbMACl3_mp2_md_22.orca.scfp.tmp

-------------
DIPOLE MOMENT
-------------
                                X             Y             Z
Electronic contribution:    -58.97816     -49.90614     -36.80633
Nuclear contribution   :     63.48964      52.77997      38.53400
                        -----------------------------------------
Total Dipole Moment    :      4.51148       2.87382       1.72767
                        -----------------------------------------
Magnitude (a.u.)       :      5.62114
Magnitude (Debye)      :     14.28780


                         *** MP2 UNRELAXED DENSITY ***

------------------------------------------------------------------------------
                       ORCA ELECTRIC PROPERTIES CALCULATION
------------------------------------------------------------------------------

Dipole Moment Calculation                       ... on
Quadrupole Moment Calculation                   ... off
Polarizability Calculation                      ... off
GBWName                                         ... PbMACl3_mp2_md_22.orca.gbw
Electron density file                           ... PbMACl3_mp2_md_22.orca.pmp2ur

-------------
DIPOLE MOMENT
-------------
                                X             Y             Z
Electronic contribution:    -58.98873     -49.91407     -36.80620
Nuclear contribution   :     63.48964      52.77997      38.53400
                        -----------------------------------------
Total Dipole Moment    :      4.50091       2.86590       1.72780
                        -----------------------------------------
Magnitude (a.u.)       :      5.60865
Magnitude (Debye)      :     14.25604


                           *** MP2 RELAXED DENSITY ***

------------------------------------------------------------------------------
                       ORCA ELECTRIC PROPERTIES CALCULATION
------------------------------------------------------------------------------

Dipole Moment Calculation                       ... on
Quadrupole Moment Calculation                   ... off
Polarizability Calculation                      ... off
GBWName                                         ... PbMACl3_mp2_md_22.orca.gbw
Electron density file                           ... PbMACl3_mp2_md_22.orca.pmp2re

-------------
DIPOLE MOMENT
-------------
                                X             Y             Z
Electronic contribution:    -59.03800     -49.96265     -36.83455
Nuclear contribution   :     63.48964      52.77997      38.53400
                        -----------------------------------------
Total Dipole Moment    :      4.45164       2.81732       1.69945
                        -----------------------------------------
Magnitude (a.u.)       :      5.53557
Magnitude (Debye)      :     14.07030


Timings for individual modules:

Sum of individual times         ...      792.952 sec (=  13.216 min)
GTO integral calculation        ...        0.571 sec (=   0.010 min)   0.1 %
SCF iterations                  ...      335.583 sec (=   5.593 min)  42.3 %
MP2 module                      ...      456.799 sec (=   7.613 min)  57.6 %
                             ****ORCA TERMINATED NORMALLY****
TOTAL RUN TIME: 0 days 0 hours 13 minutes 13 seconds 443 msec
