
                                 *****************
                                 * O   R   C   A *
                                 *****************

           --- An Ab Initio, DFT and Semiempirical electronic structure package ---

                  #######################################################
                  #                        -***-                        #
                  #  Department of molecular theory and spectroscopy    #
                  #              Directorship: Frank Neese              #
                  # Max Planck Institute for Chemical Energy Conversion #
                  #                  D-45470 Muelheim/Ruhr              #
                  #                       Germany                       #
                  #                                                     #
                  #                  All rights reserved                #
                  #                        -***-                        #
                  #######################################################


                         Program Version 3.0.3 - RELEASE   -


 With contributions from (in alphabetic order):
   Ute Becker             : Parallelization
   Dmytro Bykov           : SCF Hessian
   Dmitry Ganyushin       : Spin-Orbit,Spin-Spin,Magnetic field MRCI
   Andreas Hansen         : Spin unrestricted coupled pair/coupled cluster methods
   Dimitrios Liakos       : Extrapolation schemes; parallel MDCI
   Robert Izsak           : Overlap fitted RIJCOSX, COSX-SCS-MP3
   Christian Kollmar      : KDIIS, OOCD, Brueckner-CCSD(T), CCSD density
   Simone Kossmann        : Meta GGA functionals, TD-DFT gradient, OOMP2, MP2 Hessian
   Taras Petrenko         : DFT Hessian,TD-DFT gradient, ASA and ECA modules, normal mode analysis, Resonance Raman, ABS, FL, XAS/XES, NRVS
   Christoph Reimann      : Effective Core Potentials
   Michael Roemelt        : Restricted open shell CIS
   Christoph Riplinger    : Improved optimizer, TS searches, QM/MM, DLPNO-CCSD
   Barbara Sandhoefer     : DKH picture change effects
   Igor Schapiro          : Molecular dynamics
   Kantharuban Sivalingam : CASSCF convergence, NEVPT2
   Boris Wezisla          : Elementary symmetry handling
   Frank Wennmohs         : Technical directorship


 We gratefully acknowledge several colleagues who have allowed us to
 interface, adapt or use parts of their codes:
   Stefan Grimme, W. Hujo, H. Kruse, T. Risthaus : VdW corrections, initial TS optimization,
                                                   DFT functionals, gCP
   Ed Valeev                                     : LibInt (2-el integral package), F12 methods
   Garnet Chan, S. Sharma, R. Olivares           : DMRG
   Ulf Ekstrom                                   : XCFun DFT Library
   Mihaly Kallay                                 : mrcc  (arbitrary order and MRCC methods)
   Andreas Klamt, Michael Diedenhofen            : otool_cosmo (COSMO solvation model)
   Frank Weinhold                                : gennbo (NPA and NBO analysis)
   Christopher J. Cramer and Donald G. Truhlar   : smd solvation model


 Your calculation uses the libint2 library for the computation of 2-el integrals
 For citations please refer to: http://libint.valeyev.net

 This ORCA versions uses:
   CBLAS   interface :  Fast vector & matrix operations
   LAPACKE interface :  Fast linear algebra routines
   SCALAPACK package :  Parallel linear algebra routines


Your calculation utilizes the basis: Ahlrichs-TZV
Cite in your paper:
H - Kr: A. Schaefer, H. Horn and R. Ahlrichs, J. Chem. Phys. 97, 2571 (1992).

The def2-TZV basis will be loaded
Cite in your paper:
 	F. Weigend, R. Ahlrichs, Phys. Chem. Chem. Phys. 2005, 7, 3297.

Your calculation utilizes the atom-pairwise dispersion correction
with the Becke-Johnson damping scheme (D3BJ)
Cite in your paper:
S.Grimme, S.Ehrlich, L.Goerigk, J Comput Chem, (2011), 32, 1456–1465 
S.Grimme, J.Antony, S.Ehrlich and H.Krieg, J.Chem.Phys., 132, (2010), 154104 
   

================================================================================
                                        WARNINGS
                       Please study these warnings very carefully!
================================================================================

WARNING: The RI method has been chosen with no auxiliary basis (AUX or GTOAUX in BASIS block)
        Standard TZV/J expansion basis used (GTOAUX=TZV_J)

Now building the actual basis set
cite the ECPs for Pb [SD(60,MDF)] as follows:
  B. Metz, H. Stoll, M. Dolg, J. Chem. Phys. 113, 2563 (2000).

ECP parameters for Pb [SD(60,MDF)] have been obtained from:
  pseudopotential library of the Stuttgart/Cologne group
  http://www.theochem.uni-stuttgart.de/pseudopotentials/

cite the ECP basis sets for Pb [DEF2-TZVP] as follows:
  F. Weigend, R. Ahlrichs; Phys. Chem. Chem. Phys. 7, 3297(2005).

ECP basis sets for Pb [DEF2-TZVP] have been obtained from:
  Turbomole basis set library
  ftp://ftp.chemie.uni-karlsruhe.de/pub/basen/



INFO   : the flag for use of LIBINT has been found!

================================================================================
                                       INPUT FILE
================================================================================
NAME = PbMACl3_mp2_md2_17.orca
|  1> ! RIJCOSX RI-B2PLYP D3BJ def2-TZVP ECP{def2-TZVP} TIGHTSCF Grid5 FinalGrid6 SlowConv MORead
|  2> %method
|  3>  RunTyp Gradient
|  4>  end
|  5> %maxcore 1000
|  6> %moinp "previous.gbw"
|  7> *xyz 0 1
|  8> C -0.394281 0.276013 -0.426662 
|  9> N -1.165380 -0.685592 -1.253010 
| 10> H 0.248796 -0.278576 0.260517 
| 11> H -1.090820 0.897444 0.140826 
| 12> H 0.215705 0.904875 -1.079130 
| 13> H -1.783150 -1.324970 -0.698370 
| 14> H -0.582260 -1.326300 -1.835140 
| 15> H -1.813140 -0.240924 -1.938260 
| 16> Pb -2.859750 -2.534590 -2.914500 
| 17> Cl -0.471979 -2.277910 -3.607000 
| 18> Cl -3.733560 -0.219555 -2.441240 
| 19> Cl -2.617790 -3.417950 -0.619091 
| 20> *
| 21> 
| 22>                          ****END OF INPUT****
================================================================================

                     *******************************
                     * Energy+Gradient Calculation *
                     *******************************

---------------------------------
CARTESIAN COORDINATES (ANGSTROEM)
---------------------------------
  C     -0.394281    0.276013   -0.426662
  N     -1.165380   -0.685592   -1.253010
  H      0.248796   -0.278576    0.260517
  H     -1.090820    0.897444    0.140826
  H      0.215705    0.904875   -1.079130
  H     -1.783150   -1.324970   -0.698370
  H     -0.582260   -1.326300   -1.835140
  H     -1.813140   -0.240924   -1.938260
  Pb    -2.859750   -2.534590   -2.914500
  Cl    -0.471979   -2.277910   -3.607000
  Cl    -3.733560   -0.219555   -2.441240
  Cl    -2.617790   -3.417950   -0.619091

----------------------------
CARTESIAN COORDINATES (A.U.)
----------------------------
  NO LB      ZA    FRAG    MASS        X           Y           Z
   0 C     6.0000    0    12.011         -0.745083109808605          0.521588979402006         -0.806274331751109
   1 N     7.0000    0    14.007         -2.202249041949148         -1.295581119607339         -2.367845743064668
   2 H     1.0000    0     1.008          0.470156303215072         -0.526432347483247          0.492305783230763
   3 H     1.0000    0     1.008         -2.061351061403979          1.695923380530824          0.266122572535594
   4 H     1.0000    0     1.008          0.407623375717484          1.709965935431992         -2.039260162898440
   5 H     1.0000    0     1.008         -3.369665155701680         -2.503830435661641         -1.319728040146585
   6 H     1.0000    0     1.008         -1.100311938736988         -2.506343771419756         -3.467912017404246
   7 H     1.0000    0     1.008         -3.426338042457978         -0.455280379088844         -3.662780576334205
   8 Pb   22.0000*   0   207.200  -5.404144311481299  -4.789680961775465  -5.507606817313488
   9 Cl   17.0000    0    35.453         -0.891911050962018         -4.304626057720558         -6.816242165053955
  10 Cl   17.0000    0    35.453         -7.055405904563028         -0.414898821333080         -4.613275027173916
  11 Cl   17.0000    0    35.453         -4.946906176117713         -6.458989439436142         -1.169912441975441
* core charge reduced due to ECP

--------------------------------
INTERNAL COORDINATES (ANGSTROEM)
--------------------------------
 C      0   0   0   0.000000     0.000     0.000
 N      1   0   0   1.483957     0.000     0.000
 H      1   2   0   1.092397   109.099     0.000
 H      1   2   3   1.092422   109.061   240.173
 H      1   2   3   1.092367   109.305   120.114
 H      2   1   3   1.047888   114.015    60.210
 H      2   1   3   1.043749   114.711   299.789
 H      2   1   3   1.042540   114.361   179.708
 Pb     8   2   1   2.703579    96.662   182.229
 Cl     7   2   1   2.014252   144.214   216.246
 Cl     8   2   1   1.985311   140.546   236.649
 Cl     6   2   1   2.254656   143.442   214.683

---------------------------
INTERNAL COORDINATES (A.U.)
---------------------------
 C      0   0   0   0.000000     0.000     0.000
 N      1   0   0   2.804273     0.000     0.000
 H      1   2   0   2.064332   109.099     0.000
 H      1   2   3   2.064378   109.061   240.173
 H      1   2   3   2.064274   109.305   120.114
 H      2   1   3   1.980222   114.015    60.210
 H      2   1   3   1.972399   114.711   299.789
 H      2   1   3   1.970116   114.361   179.708
 Pb     8   2   1   5.109024    96.662   182.229
 Cl     7   2   1   3.806385   144.214   216.246
 Cl     8   2   1   3.751693   140.546   236.649
 Cl     6   2   1   4.260683   143.442   214.683

---------------------
BASIS SET INFORMATION
---------------------
There are 5 groups of distinct atoms

 Group   1 Type C   : 11s6p2d1f contracted to 5s3p2d1f pattern {62111/411/11/1}
 Group   2 Type N   : 11s6p2d1f contracted to 5s3p2d1f pattern {62111/411/11/1}
 Group   3 Type H   : 5s1p contracted to 3s1p pattern {311/1}
 Group   4 Type Pb  : 10s9p8d2f contracted to 6s5p3d2f pattern {421111/33111/611/11}
 Group   5 Type Cl  : 14s9p3d1f contracted to 5s5p2d1f pattern {73211/51111/21/1}

Atom   0C    basis set group =>   1
Atom   1N    basis set group =>   2
Atom   2H    basis set group =>   3
Atom   3H    basis set group =>   3
Atom   4H    basis set group =>   3
Atom   5H    basis set group =>   3
Atom   6H    basis set group =>   3
Atom   7H    basis set group =>   3
Atom   8Pb   basis set group =>   4
Atom   9Cl   basis set group =>   5
Atom  10Cl   basis set group =>   5
Atom  11Cl   basis set group =>   5
-------------------------------
AUXILIARY BASIS SET INFORMATION
-------------------------------
There are 5 groups of distinct atoms

 Group   1 Type C   : 12s5p4d2f1g contracted to 6s4p3d1f1g pattern {711111/2111/211/2/1}
 Group   2 Type N   : 12s5p4d2f1g contracted to 6s4p3d1f1g pattern {711111/2111/211/2/1}
 Group   3 Type H   : 5s2p1d contracted to 3s1p1d pattern {311/2/1}
 Group   4 Type Pb  : 31s12p8d6f3g contracted to 31s12p8d6f3g pattern {1111111111111111111111111111111/111111111111/11111111/111111/111}
 Group   5 Type Cl  : 14s5p5d2f1g contracted to 8s4p3d1f1g pattern {71111111/2111/311/2/1}

Atom   0C    basis set group =>   1
Atom   1N    basis set group =>   2
Atom   2H    basis set group =>   3
Atom   3H    basis set group =>   3
Atom   4H    basis set group =>   3
Atom   5H    basis set group =>   3
Atom   6H    basis set group =>   3
Atom   7H    basis set group =>   3
Atom   8Pb   basis set group =>   4
Atom   9Cl   basis set group =>   5
Atom  10Cl   basis set group =>   5
Atom  11Cl   basis set group =>   5

-------------------------
ECP PARAMETER INFORMATION
-------------------------

 Group 1, Type Pb ECP SD(60,MDF) (replacing 60 core electrons, lmax=5)

Atom   8Pb   ECP group =>   1


------------------------------------------------------------------------------
                           ORCA GTO INTEGRAL CALCULATION
                           -- RI-GTO INTEGRALS CHOSEN --
------------------------------------------------------------------------------

                         BASIS SET STATISTICS AND STARTUP INFO

Gaussian basis set:
 # of primitive gaussian shells          ...  186
 # of primitive gaussian functions       ...  420
 # of contracted shells                  ...  101
 # of contracted basis functions         ...  259
 Highest angular momentum                ...    3
 Maximum contraction depth               ...    7
Auxiliary gaussian basis set:
 # of primitive gaussian shells          ...  237
 # of primitive gaussian functions       ...  643
 # of contracted shells                  ...  171
 # of contracted aux-basis functions     ...  493
 Highest angular momentum                ...    4
 Maximum contraction depth               ...    7
Ratio of auxiliary to basis functions    ...  1.90
Integral package used                  ... LIBINT
 One Electron integrals                  
   ECP integrals                         ... done
 Ordering auxiliary basis shells         ... done
 Integral threshhold             Thresh  ...  2.500e-11
 Primitive cut-off               TCut    ...  2.500e-12
 Pre-screening matrix                    ... done
 Shell pair data                         ... 
 Ordering of the shell pairs             ... done (   0.001 sec) 4499 of 5151 pairs
 Determination of significant pairs      ... done (   0.000 sec)
 Creation of shell pair data             ... done (   0.002 sec)
 Storage of shell pair data              ... done (   0.001 sec)
 Shell pair data done in (   0.003 sec)
 Computing two index integrals           ... done
 Cholesky decomposition of the V-matrix  ... done


Timings:
 Total evaluation time                   ...   0.569 sec (  0.009 min)
 One electron matrix time                ...   0.309 sec (  0.005 min) = 54.3%
 Schwartz matrix evaluation time         ...   0.213 sec (  0.004 min) = 37.4%
 Two index repulsion integral time       ...   0.008 sec (  0.000 min) =  1.4%
 Cholesky decomposition of V             ...   0.009 sec (  0.000 min) =  1.5%
 Three index repulsion integral time     ...   0.000 sec (  0.000 min) =  0.0%

-------------------------------------------------------------------------------
                                 ORCA SCF
-------------------------------------------------------------------------------

------------
SCF SETTINGS
------------
Hamiltonian:
 Density Functional     Method          .... DFT(GTOs)
 Exchange Functional    Exchange        .... B88
   X-Alpha parameter    XAlpha          ....  0.666667
   Becke's b parameter  XBeta           ....  0.004200
 Correlation Functional Correlation     .... LYP
 LDA part of GGA corr.  LDAOpt          .... VWN-3
 Gradients option       PostSCFGGA      .... off
 Hybrid DFT is turned on
   Fraction HF Exchange ScalHFX         ....  0.530000
   Scaling of DF-GGA-X  ScalDFX         ....  0.470000
   Scaling of DF-GGA-C  ScalDFC         ....  0.730000
   Scaling of DF-LDA-C  ScalLDAC        ....  0.730000
   Perturbative correction              ....  0.270000
 RI-approximation to the Coulomb term is turned on
   Number of auxiliary basis functions  .... 493
   RIJ-COSX (HFX calculated with COS-X)).... on


General Settings:
 Integral files         IntName         .... PbMACl3_mp2_md2_17.orca
 Hartree-Fock type      HFTyp           .... RHF
 Total Charge           Charge          ....    0
 Multiplicity           Mult            ....    1
 Number of Electrons    NEL             ....   92
 Basis Dimension        Dim             ....  259
 Nuclear Repulsion      ENuc            ....    616.2525040874 Eh

Convergence Acceleration:
 DIIS                   CNVDIIS         .... on
   Start iteration      DIISMaxIt       ....     0
   Startup error        DIISStart       ....  0.200000
   # of expansion vecs  DIISMaxEq       ....     5
   Bias factor          DIISBfac        ....   1.050
   Max. coefficient     DIISMaxC        ....  10.000
 Newton-Raphson         CNVNR           .... off
 SOSCF                  CNVSOSCF        .... on
   Start iteration      SOSCFMaxIt      ....   150
   Startup grad/error   SOSCFStart      ....  0.001000
 Level Shifting         CNVShift        .... on
   Level shift para.    LevelShift      ....    0.2500
   Turn off err/grad.   ShiftErr        ....    0.0000
 Zerner damping         CNVZerner       .... off
 Static damping         CNVDamp         .... on
   Fraction old density DampFac         ....    0.8500
   Max. Damping (<1)    DampMax         ....    0.9800
   Min. Damping (>=0)   DampMin         ....    0.0000
   Turn off err/grad.   DampErr         ....    0.0300
 Fernandez-Rico         CNVRico         .... off

SCF Procedure:
 Maximum # iterations   MaxIter         ....   125
 SCF integral mode      SCFMode         .... Direct
   Integral package                     .... LIBINT
 Reset frequeny         DirectResetFreq ....    20
 Integral Threshold     Thresh          ....  2.500e-11 Eh
 Primitive CutOff       TCut            ....  2.500e-12 Eh

Convergence Tolerance:
 Convergence Check Mode ConvCheckMode   .... Total+1el-Energy
 Energy Change          TolE            ....  1.000e-08 Eh
 1-El. energy change                    ....  1.000e-05 Eh
 Orbital Gradient       TolG            ....  1.000e-05
 Orbital Rotation angle TolX            ....  1.000e-05
 DIIS Error             TolErr          ....  5.000e-07


Diagonalization of the overlap matrix:
Smallest eigenvalue                        ... 1.055e-03
Time for diagonalization                   ...    0.016 sec
Threshold for overlap eigenvalues          ... 1.000e-08
Number of eigenvalues below threshold      ... 0
Time for construction of square roots      ...    0.005 sec
Total time needed                          ...    0.021 sec

---------------------
INITIAL GUESS: MOREAD
---------------------
Guess MOs are being read from file: previous.gbw
Input geometry compatible with but different from current geometry
Input basis set matches current basis set (good)
MOs were renormalized
MOs were reorthogonalized (Schmidt)
                      ------------------
                      INITIAL GUESS DONE (   0.1 sec)
                      ------------------
-------------------
DFT GRID GENERATION
-------------------

General Integration Accuracy     IntAcc      ...  5.010
Radial Grid Type                 RadialGrid  ... Gauss-Chebyshev
Angular Grid (max. acc.)         AngularGrid ... Lebedev-434
Angular grid pruning method      GridPruning ... 3 (G Style)
Weight generation scheme         WeightScheme... Becke
Basis function cutoff            BFCut       ...    1.0000e-11
Integration weight cutoff        WCut        ...    1.0000e-14
Grids for H and He will be reduced by one unit

# of grid points (after initial pruning)     ... 115882 (   0.0 sec)
# of grid points (after weights+screening)   ... 108437 (   0.2 sec)
nearest neighbour list constructed           ...    0.0 sec
Grid point re-assignment to atoms done       ...    0.0 sec
Grid point division into batches done        ...    0.9 sec
Reduced shell lists constructed in    3.3 sec

Total number of grid points                  ...   108437
Total number of batches                      ...     1699
Average number of points per batch           ...       63
Average number of grid points per atom       ...     9036
Average number of shells per batch           ...    56.43 (55.87%)
Average number of basis functions per batch  ...   149.76 (57.82%)
Average number of large shells per batch     ...    42.81 (75.87%)
Average number of large basis fcns per batch ...   110.57 (73.83%)
Maximum spatial batch extension              ...  34.93, 34.03, 32.62 au
Average spatial batch extension              ...   2.41,  2.42,  2.43 au

Time for grid setup =    3.587 sec

--------------------
COSX GRID GENERATION
--------------------

General Integration Accuracy     IntAcc      ...  3.340
Radial Grid Type                 RadialGrid  ... Gauss-Chebyshev
Angular Grid (max. acc.)         AngularGrid ... Lebedev-50
Angular grid pruning method      GridPruning ... 3 (G Style)
Weight generation scheme         WeightScheme... Becke
Basis function cutoff            BFCut       ...    1.0000e-11
Integration weight cutoff        WCut        ...    1.0000e-14
Grids for H and He will be reduced by one unit

# of grid points (after initial pruning)     ...   6578 (   0.0 sec)
# of grid points (after weights+screening)   ...   6201 (   0.0 sec)
nearest neighbour list constructed           ...    0.0 sec
Grid point re-assignment to atoms done       ...    0.0 sec
Grid point division into batches done        ...    0.0 sec
Reduced shell lists constructed in    0.2 sec

Total number of grid points                  ...     6201
Total number of batches                      ...      104
Average number of points per batch           ...       59
Average number of grid points per atom       ...      517
Average number of shells per batch           ...    68.10 (67.43%)
Average number of basis functions per batch  ...   183.27 (70.76%)
Average number of large shells per batch     ...    53.38 (78.38%)
Average number of large basis fcns per batch ...   140.64 (76.74%)
Maximum spatial batch extension              ...  40.64, 35.45, 35.86 au
Average spatial batch extension              ...   6.23,  6.34,  6.50 au

Overlap Fitting                  UseSFitting ... on
Constructing numerical overlap ... done (      0.1 sec)
Inverting numerical overlap    ... done (      0.0 sec)
Obtaining analytic overlap     ... done (      0.0 sec)
Final contraction and storage  ... done (      0.0 sec)


General Integration Accuracy     IntAcc      ...  3.670
Radial Grid Type                 RadialGrid  ... Gauss-Chebyshev
Angular Grid (max. acc.)         AngularGrid ... Lebedev-50
Angular grid pruning method      GridPruning ... 3 (G Style)
Weight generation scheme         WeightScheme... Becke
Basis function cutoff            BFCut       ...    1.0000e-11
Integration weight cutoff        WCut        ...    1.0000e-14
Grids for H and He will be reduced by one unit

# of grid points (after initial pruning)     ...   8124 (   0.0 sec)
# of grid points (after weights+screening)   ...   7636 (   0.0 sec)
nearest neighbour list constructed           ...    0.0 sec
Grid point re-assignment to atoms done       ...    0.0 sec
Grid point division into batches done        ...    0.0 sec
Reduced shell lists constructed in    0.2 sec

Total number of grid points                  ...     7636
Total number of batches                      ...      124
Average number of points per batch           ...       61
Average number of grid points per atom       ...      636
Average number of shells per batch           ...    67.44 (66.77%)
Average number of basis functions per batch  ...   180.99 (69.88%)
Average number of large shells per batch     ...    52.92 (78.47%)
Average number of large basis fcns per batch ...   138.55 (76.55%)
Maximum spatial batch extension              ...  42.24, 37.23, 31.28 au
Average spatial batch extension              ...   6.18,  6.02,  6.21 au

Overlap Fitting                  UseSFitting ... on
Constructing numerical overlap ... done (      0.1 sec)
Inverting numerical overlap    ... done (      0.0 sec)
Obtaining analytic overlap     ... done (      0.0 sec)
Final contraction and storage  ... done (      0.0 sec)


General Integration Accuracy     IntAcc      ...  4.010
Radial Grid Type                 RadialGrid  ... Gauss-Chebyshev
Angular Grid (max. acc.)         AngularGrid ... Lebedev-110
Angular grid pruning method      GridPruning ... 3 (G Style)
Weight generation scheme         WeightScheme... Becke
Basis function cutoff            BFCut       ...    1.0000e-11
Integration weight cutoff        WCut        ...    1.0000e-14
Grids for H and He will be reduced by one unit

# of grid points (after initial pruning)     ...  15170 (   0.0 sec)
# of grid points (after weights+screening)   ...  14349 (   0.0 sec)
nearest neighbour list constructed           ...    0.0 sec
Grid point re-assignment to atoms done       ...    0.0 sec
Grid point division into batches done        ...    0.0 sec
Reduced shell lists constructed in    0.4 sec

Total number of grid points                  ...    14349
Total number of batches                      ...      230
Average number of points per batch           ...       62
Average number of grid points per atom       ...     1196
Average number of shells per batch           ...    63.92 (63.28%)
Average number of basis functions per batch  ...   171.61 (66.26%)
Average number of large shells per batch     ...    49.46 (77.39%)
Average number of large basis fcns per batch ...   129.61 (75.52%)
Maximum spatial batch extension              ...  34.29, 38.78, 39.35 au
Average spatial batch extension              ...   4.85,  4.99,  5.00 au

Overlap Fitting                  UseSFitting ... on
Constructing numerical overlap ... done (      0.2 sec)
Inverting numerical overlap    ... done (      0.0 sec)
Obtaining analytic overlap     ... done (      0.0 sec)
Final contraction and storage  ... done (      0.0 sec)

Time for X-Grid setup             =    1.386 sec
--------------
SCF ITERATIONS
--------------
ITER       Energy         Delta-E        Max-DP      RMS-DP      [F,P]     Damp
               ***  Starting incremental Fock matrix formation  ***
  0  -1668.9342824615   0.000000000000 0.00664351  0.00022109  0.3580131 0.8500
  1  -1668.9448652789  -0.010582817403 0.00733444  0.00025003  0.3046180 0.8500
                               ***Turning on DIIS***
  2  -1668.9543493546  -0.009484075766 0.00684824  0.00023500  0.2590280 0.8500
  3  -1668.9624572824  -0.008107927736 0.00982388  0.00021994  0.2202506 0.8500
  4  -1668.9694662674  -0.007008985059 0.01266351  0.00020940  0.1872574 0.8500
  5  -1668.9755080388  -0.006041771359 0.01222435  0.00019237  0.1591897 0.8500
  6  -1668.9807758501  -0.005267811277 0.01076474  0.00017176  0.1353220 0.8500
  7  -1668.9853834034  -0.004607553303 0.00896943  0.00015060  0.1150296 0.8500
  8  -1668.9894111393  -0.004027735897 0.00780737  0.00013144  0.0977791 0.8500
  9  -1668.9929105134  -0.003499374139 0.00698066  0.00011428  0.0831152 0.8500
 10  -1668.9959417165  -0.003031203104 0.00617104  0.00009892  0.0706505 0.8500
 11  -1668.9985633782  -0.002621661728 0.00534315  0.00008527  0.0600553 0.8500
 12  -1669.0008274841  -0.002264105820 0.00456514  0.00007330  0.0510490 0.8500
 13  -1669.0027793217  -0.001951837614 0.00390437  0.00006294  0.0433932 0.8500
 14  -1669.0044586475  -0.001679325835 0.00335956  0.00005401  0.0368855 0.8500
 15  -1669.0059010034  -0.001442355855 0.00289736  0.00004632  0.0313537 0.8500
 16  -1669.0071380915  -0.001237088122 0.01662318  0.00026471  0.0266515 0.0000
                      *** Initiating the SOSCF procedure ***
                           *** Shutting down DIIS ***
                      *** Re-Reading the Fockian *** 
                      *** Removing any level shift *** 
ITER      Energy       Delta-E        Grad      Rot      Max-DP    RMS-DP
 17  -1669.01435622  -0.0072181253  0.000186  0.000186  0.000581  0.000006
               *** Restarting incremental Fock matrix formation ***
 18  -1669.01435359   0.0000026243  0.000108  0.000309  0.000210  0.000005
 19  -1669.01435378  -0.0000001916  0.000033  0.000175  0.000245  0.000003
 20  -1669.01435376   0.0000000264  0.000026  0.000030  0.000111  0.000001
                  ***Gradient check signals convergence***
              ***Rediagonalizing the Fockian in SOSCF/NRSCF***

               *****************************************************
               *                     SUCCESS                       *
               *           SCF CONVERGED AFTER  21 CYCLES          *
               *****************************************************

Old exchange energy                            =    -59.233481083 Eh
New exchange energy                            =    -59.236252033 Eh
Exchange energy change after final integration =     -0.002770950 Eh
Total energy after final integration           =  -1669.017124716 Eh
Final COS-X integration done in                =    21.067 sec

----------------
TOTAL SCF ENERGY
----------------

Total Energy       :        -1669.01712472 Eh          -45416.26488 eV

Components:
Nuclear Repulsion  :          616.25250409 Eh           16769.08316 eV
Electronic Energy  :        -2285.26962880 Eh          -62185.34804 eV

One Electron Energy:        -3602.64971216 Eh          -98033.08257 eV
Two Electron Energy:         1317.38008336 Eh           35847.73453 eV

Virial components:
Potential Energy   :        -3206.98806962 Eh          -87266.58192 eV
Kinetic Energy     :         1537.97094490 Eh           41850.31704 eV
Virial Ratio       :            2.08520719


DFT components:
N(Alpha)           :       46.000029523657 electrons
N(Beta)            :       46.000029523657 electrons
N(Total)           :       92.000059047314 electrons
E(X)               :      -52.602719611570 Eh       
E(C)               :       -2.613852026860 Eh       
E(XC)              :      -55.216571638430 Eh       

---------------
SCF CONVERGENCE
---------------

  Last Energy change         ...   -8.2202e-09  Tolerance :   1.0000e-08
  Last MAX-Density change    ...    7.5051e-14  Tolerance :   1.0000e-07
  Last RMS-Density change    ...    4.8463e-16  Tolerance :   5.0000e-09
  Last Orbital Gradient      ...    1.7719e-06  Tolerance :   1.0000e-05
  Last Orbital Rotation      ...    4.4684e-06  Tolerance :   1.0000e-05

             **** THE GBW FILE WAS UPDATED (PbMACl3_mp2_md2_17.orca.gbw) ****
             **** DENSITY FILE WAS UPDATED (PbMACl3_mp2_md2_17.orca.scfp.tmp) ****
             **** ENERGY FILE WAS UPDATED (PbMACl3_mp2_md2_17.orca.en.tmp) ****
----------------
ORBITAL ENERGIES
----------------

  NO   OCC          E(Eh)            E(eV) 
   0   2.0000    -102.865711     -2799.1183 
   1   2.0000    -102.863958     -2799.0706 
   2   2.0000    -102.863053     -2799.0460 
   3   2.0000     -14.958191      -407.0331 
   4   2.0000     -10.709125      -291.4101 
   5   2.0000      -9.874306      -268.6935 
   6   2.0000      -9.872577      -268.6465 
   7   2.0000      -9.871052      -268.6050 
   8   2.0000      -7.511222      -204.3907 
   9   2.0000      -7.509660      -204.3482 
  10   2.0000      -7.509467      -204.3430 
  11   2.0000      -7.509227      -204.3364 
  12   2.0000      -7.508159      -204.3074 
  13   2.0000      -7.507977      -204.3024 
  14   2.0000      -7.507484      -204.2890 
  15   2.0000      -7.506356      -204.2583 
  16   2.0000      -7.505957      -204.2475 
  17   2.0000      -5.797254      -157.7513 
  18   2.0000      -3.569100       -97.1202 
  19   2.0000      -3.567431       -97.0747 
  20   2.0000      -3.567260       -97.0701 
  21   2.0000      -1.144174       -31.1346 
  22   2.0000      -0.975772       -26.5521 
  23   2.0000      -0.974816       -26.5261 
  24   2.0000      -0.961088       -26.1525 
  25   2.0000      -0.958026       -26.0692 
  26   2.0000      -0.956608       -26.0306 
  27   2.0000      -0.909080       -24.7373 
  28   2.0000      -0.880316       -23.9546 
  29   2.0000      -0.873040       -23.7566 
  30   2.0000      -0.857180       -23.3251 
  31   2.0000      -0.670276       -18.2391 
  32   2.0000      -0.669665       -18.2225 
  33   2.0000      -0.608923       -16.5696 
  34   2.0000      -0.559973       -15.2376 
  35   2.0000      -0.522020       -14.2049 
  36   2.0000      -0.521513       -14.1911 
  37   2.0000      -0.404009       -10.9936 
  38   2.0000      -0.399674       -10.8757 
  39   2.0000      -0.381283       -10.3752 
  40   2.0000      -0.365027        -9.9329 
  41   2.0000      -0.364181        -9.9099 
  42   2.0000      -0.361609        -9.8399 
  43   2.0000      -0.358892        -9.7659 
  44   2.0000      -0.351989        -9.5781 
  45   2.0000      -0.289589        -7.8801 
  46   0.0000      -0.003584        -0.0975 
  47   0.0000       0.030768         0.8372 
  48   0.0000       0.036139         0.9834 
  49   0.0000       0.042394         1.1536 
  50   0.0000       0.090012         2.4493 
  51   0.0000       0.109577         2.9817 
  52   0.0000       0.112908         3.0724 
  53   0.0000       0.115806         3.1512 
  54   0.0000       0.135306         3.6819 
  55   0.0000       0.140624         3.8266 
  56   0.0000       0.150762         4.1024 
  57   0.0000       0.152295         4.1442 
  58   0.0000       0.177013         4.8168 
  59   0.0000       0.219420         5.9707 
  60   0.0000       0.228653         6.2220 
  61   0.0000       0.264273         7.1912 
  62   0.0000       0.268912         7.3175 
  63   0.0000       0.274736         7.4760 
  64   0.0000       0.278055         7.5663 
  65   0.0000       0.284007         7.7282 
  66   0.0000       0.285542         7.7700 
  67   0.0000       0.322393         8.7728 
  68   0.0000       0.336054         9.1445 
  69   0.0000       0.352814         9.6006 
  70   0.0000       0.393329        10.7030 
  71   0.0000       0.404948        11.0192 
  72   0.0000       0.410547        11.1716 
  73   0.0000       0.423666        11.5285 
  74   0.0000       0.428642        11.6639 
  75   0.0000       0.433215        11.7884 
  76   0.0000       0.436464        11.8768 
  77   0.0000       0.445152        12.1132 
  78   0.0000       0.446716        12.1558 
  79   0.0000       0.452142        12.3034 
  80   0.0000       0.477484        12.9930 
  81   0.0000       0.484296        13.1784 
  82   0.0000       0.492862        13.4115 
  83   0.0000       0.512899        13.9567 
  84   0.0000       0.517967        14.0946 
  85   0.0000       0.525883        14.3100 
  86   0.0000       0.526668        14.3314 
  87   0.0000       0.544368        14.8130 
  88   0.0000       0.556913        15.1544 
  89   0.0000       0.563138        15.3238 
  90   0.0000       0.575664        15.6646 
  91   0.0000       0.589119        16.0308 
  92   0.0000       0.592698        16.1281 
  93   0.0000       0.616644        16.7797 
  94   0.0000       0.624824        17.0023 
  95   0.0000       0.633268        17.2321 
  96   0.0000       0.643717        17.5164 
  97   0.0000       0.644971        17.5505 
  98   0.0000       0.690483        18.7890 
  99   0.0000       0.697447        18.9785 
 100   0.0000       0.699665        19.0389 
 101   0.0000       0.738294        20.0900 
 102   0.0000       0.763036        20.7633 
 103   0.0000       0.786347        21.3976 
 104   0.0000       0.820779        22.3345 
 105   0.0000       0.863249        23.4902 
 106   0.0000       0.874559        23.7980 
 107   0.0000       0.882223        24.0065 
 108   0.0000       0.896801        24.4032 
 109   0.0000       0.903214        24.5777 
 110   0.0000       0.911503        24.8033 
 111   0.0000       0.913326        24.8529 
 112   0.0000       0.924231        25.1496 
 113   0.0000       0.955159        25.9912 
 114   0.0000       0.975984        26.5579 
 115   0.0000       0.988099        26.8875 
 116   0.0000       1.018981        27.7279 
 117   0.0000       1.066423        29.0189 
 118   0.0000       1.072779        29.1918 
 119   0.0000       1.089804        29.6551 
 120   0.0000       1.098195        29.8834 
 121   0.0000       1.103415        30.0255 
 122   0.0000       1.124992        30.6126 
 123   0.0000       1.228755        33.4361 
 124   0.0000       1.231349        33.5067 
 125   0.0000       1.291529        35.1443 
 126   0.0000       1.316567        35.8256 
 127   0.0000       1.326194        36.0876 
 128   0.0000       1.385887        37.7119 
 129   0.0000       1.403190        38.1827 
 130   0.0000       1.491631        40.5894 
 131   0.0000       1.566280        42.6206 
 132   0.0000       1.578460        42.9521 
 133   0.0000       1.588815        43.2338 
 134   0.0000       1.589604        43.2553 
 135   0.0000       1.661734        45.2181 
 136   0.0000       1.743292        47.4374 
 137   0.0000       1.780410        48.4474 
 138   0.0000       1.801508        49.0215 
 139   0.0000       1.881621        51.2015 
 140   0.0000       1.885460        51.3060 
 141   0.0000       1.901360        51.7386 
 142   0.0000       1.934248        52.6336 
 143   0.0000       1.940015        52.7905 
 144   0.0000       1.946809        52.9754 
 145   0.0000       1.958485        53.2931 
 146   0.0000       1.960097        53.3370 
 147   0.0000       1.972345        53.6702 
 148   0.0000       1.988761        54.1169 
 149   0.0000       2.013045        54.7778 
 150   0.0000       2.023623        55.0656 
 151   0.0000       2.029729        55.2317 
 152   0.0000       2.035952        55.4011 
 153   0.0000       2.041367        55.5484 
 154   0.0000       2.077766        56.5389 
 155   0.0000       2.092916        56.9512 
 156   0.0000       2.096665        57.0532 
 157   0.0000       2.099986        57.1435 
 158   0.0000       2.109824        57.4112 
 159   0.0000       2.118249        57.6405 
 160   0.0000       2.122585        57.7585 
 161   0.0000       2.134098        58.0717 
 162   0.0000       2.147543        58.4376 
 163   0.0000       2.171603        59.0923 
 164   0.0000       2.182553        59.3903 
 165   0.0000       2.186126        59.4875 
 166   0.0000       2.207382        60.0659 
 167   0.0000       2.217151        60.3318 
 168   0.0000       2.229512        60.6681 
 169   0.0000       2.234527        60.8046 
 170   0.0000       2.241383        60.9911 
 171   0.0000       2.247583        61.1598 
 172   0.0000       2.254479        61.3475 
 173   0.0000       2.260766        61.5186 
 174   0.0000       2.262168        61.5567 
 175   0.0000       2.275953        61.9318 
 176   0.0000       2.286169        62.2098 
 177   0.0000       2.309423        62.8426 
 178   0.0000       2.319505        63.1169 
 179   0.0000       2.337282        63.6007 
 180   0.0000       2.365313        64.3634 
 181   0.0000       2.371264        64.5254 
 182   0.0000       2.375891        64.6513 
 183   0.0000       2.378938        64.7342 
 184   0.0000       2.396570        65.2140 
 185   0.0000       2.408431        65.5367 
 186   0.0000       2.413694        65.6800 
 187   0.0000       2.418458        65.8096 
 188   0.0000       2.431712        66.1703 
 189   0.0000       2.448481        66.6266 
 190   0.0000       2.459013        66.9131 
 191   0.0000       2.475690        67.3669 
 192   0.0000       2.490210        67.7621 
 193   0.0000       2.494881        67.8892 
 194   0.0000       2.526679        68.7544 
 195   0.0000       2.541479        69.1572 
 196   0.0000       2.549737        69.3819 
 197   0.0000       2.594253        70.5932 
 198   0.0000       2.599585        70.7383 
 199   0.0000       2.628002        71.5116 
 200   0.0000       2.642242        71.8991 
 201   0.0000       2.665631        72.5355 
 202   0.0000       2.672502        72.7225 
 203   0.0000       2.774942        75.5100 
 204   0.0000       2.797137        76.1140 
 205   0.0000       2.808959        76.4357 
 206   0.0000       2.846523        77.4578 
 207   0.0000       2.877605        78.3036 
 208   0.0000       2.894976        78.7763 
 209   0.0000       2.953204        80.3608 
 210   0.0000       2.959265        80.5257 
 211   0.0000       3.046068        82.8877 
 212   0.0000       3.145420        85.5912 
 213   0.0000       3.168696        86.2246 
 214   0.0000       3.224629        87.7466 
 215   0.0000       3.261919        88.7613 
 216   0.0000       3.305782        89.9549 
 217   0.0000       3.397965        92.4633 
 218   0.0000       3.420253        93.0698 
 219   0.0000       3.557275        96.7984 
 220   0.0000       3.583653        97.5162 
 221   0.0000       3.590492        97.7022 
 222   0.0000       3.785617       103.0119 
 223   0.0000       3.789301       103.1121 
 224   0.0000       3.932619       107.0120 
 225   0.0000       4.192556       114.0852 
 226   0.0000       4.198160       114.2377 
 227   0.0000       4.443893       120.9245 
 228   0.0000       4.468529       121.5949 
 229   0.0000       4.852279       132.0372 
 230   0.0000       4.855004       132.1114 
 231   0.0000       4.958084       134.9163 
 232   0.0000       4.971855       135.2911 
 233   0.0000       5.106608       138.9579 
 234   0.0000       5.123243       139.4105 
 235   0.0000       5.135079       139.7326 
 236   0.0000       5.329511       145.0234 
 237   0.0000       5.541979       150.8049 
 238   0.0000       5.551702       151.0695 
 239   0.0000       5.876406       159.9051 
 240   0.0000      11.040464       300.4263 
 241   0.0000      11.047818       300.6264 
 242   0.0000      11.057120       300.8795 
 243   0.0000      11.088536       301.7344 
 244   0.0000      11.108191       302.2692 
 245   0.0000      11.116802       302.5036 
 246   0.0000      11.170834       303.9739 
 247   0.0000      11.213396       305.1320 
 248   0.0000      11.225739       305.4679 
 249   0.0000      22.669676       616.8732 
 250   0.0000      25.292028       688.2311 
 251   0.0000      25.373284       690.4422 
 252   0.0000      25.489540       693.6056 
 253   0.0000      32.435402       882.6122 
 254   0.0000      35.569561       967.8970 
 255   0.0000      35.825386       974.8583 
 256   0.0000      35.831956       975.0371 
 257   0.0000      35.936027       977.8690 
 258   0.0000     123.634665      3364.2703 

                    ********************************
                    * MULLIKEN POPULATION ANALYSIS *
                    ********************************

-----------------------
MULLIKEN ATOMIC CHARGES
-----------------------
   0 C :   -0.264245
   1 N :   -0.312909
   2 H :    0.157745
   3 H :    0.160171
   4 H :    0.157913
   5 H :    0.294191
   6 H :    0.299654
   7 H :    0.297641
   8 Pb:    0.777281
   9 Cl:   -0.523509
  10 Cl:   -0.529633
  11 Cl:   -0.514301
Sum of atomic charges:   -0.0000000

--------------------------------
MULLIKEN REDUCED ORBITAL CHARGES
--------------------------------
  0 C s       :     3.283324  s :     3.283324
      pz      :     0.978184  p :     2.905134
      px      :     0.991070
      py      :     0.935880
      dz2     :     0.006898  d :     0.069662
      dxz     :     0.018326
      dyz     :     0.018252
      dx2y2   :     0.007721
      dxy     :     0.018465
      f0      :     0.000355  f :     0.006125
      f+1     :     0.000502
      f-1     :     0.000725
      f+2     :     0.000764
      f-2     :     0.002645
      f+3     :     0.000515
      f-3     :     0.000618
  1 N s       :     3.434037  s :     3.434037
      pz      :     1.278887  p :     3.829459
      px      :     1.281399
      py      :     1.269173
      dz2     :     0.005850  d :     0.047293
      dxz     :     0.012241
      dyz     :     0.011288
      dx2y2   :     0.006400
      dxy     :     0.011515
      f0      :     0.000103  f :     0.002120
      f+1     :     0.000164
      f-1     :     0.000193
      f+2     :     0.000209
      f-2     :     0.001126
      f+3     :     0.000158
      f-3     :     0.000168
  2 H s       :     0.820529  s :     0.820529
      pz      :     0.008308  p :     0.021725
      px      :     0.007757
      py      :     0.005660
  3 H s       :     0.818047  s :     0.818047
      pz      :     0.006902  p :     0.021782
      px      :     0.007407
      py      :     0.007473
  4 H s       :     0.820348  s :     0.820348
      pz      :     0.006759  p :     0.021739
      px      :     0.007399
      py      :     0.007582
  5 H s       :     0.666515  s :     0.666515
      pz      :     0.009835  p :     0.039294
      px      :     0.012769
      py      :     0.016690
  6 H s       :     0.655035  s :     0.655035
      pz      :     0.018941  p :     0.045310
      px      :     0.010801
      py      :     0.015568
  7 H s       :     0.655964  s :     0.655964
      pz      :     0.015336  p :     0.046395
      px      :     0.022254
      py      :     0.008806
  8 Pbs       :     3.921153  s :     3.921153
      pz      :     2.383146  p :     7.070759
      px      :     2.349356
      py      :     2.338258
      dz2     :     2.031173  d :    10.156176
      dxz     :     2.033487
      dyz     :     2.032374
      dx2y2   :     2.028979
      dxy     :     2.030162
      f0      :     0.013523  f :     0.074630
      f+1     :     0.010761
      f-1     :     0.011432
      f+2     :     0.009503
      f-2     :     0.006244
      f+3     :     0.012001
      f-3     :     0.011166
  9 Cls       :     5.953164  s :     5.953164
      pz      :     3.879006  p :    11.546268
      px      :     3.735178
      py      :     3.932083
      dz2     :     0.004784  d :     0.023050
      dxz     :     0.005035
      dyz     :     0.002660
      dx2y2   :     0.007444
      dxy     :     0.003127
      f0      :     0.000093  f :     0.001027
      f+1     :     0.000153
      f-1     :     0.000114
      f+2     :     0.000213
      f-2     :     0.000061
      f+3     :     0.000250
      f-3     :     0.000144
 10 Cls       :     5.954727  s :     5.954727
      pz      :     3.937291  p :    11.550806
      px      :     3.859395
      py      :     3.754120
      dz2     :     0.003234  d :     0.023067
      dxz     :     0.002282
      dyz     :     0.003222
      dx2y2   :     0.008764
      dxy     :     0.005565
      f0      :     0.000127  f :     0.001033
      f+1     :     0.000089
      f-1     :     0.000159
      f+2     :     0.000118
      f-2     :     0.000083
      f+3     :     0.000303
      f-3     :     0.000155
 11 Cls       :     5.952124  s :     5.952124
      pz      :     3.740294  p :    11.539373
      px      :     3.935220
      py      :     3.863859
      dz2     :     0.009218  d :     0.021775
      dxz     :     0.003048
      dyz     :     0.006029
      dx2y2   :     0.001834
      dxy     :     0.001646
      f0      :     0.000306  f :     0.001030
      f+1     :     0.000148
      f-1     :     0.000343
      f+2     :     0.000094
      f-2     :     0.000075
      f+3     :     0.000041
      f-3     :     0.000022


                     *******************************
                     * LOEWDIN POPULATION ANALYSIS *
                     *******************************

----------------------
LOEWDIN ATOMIC CHARGES
----------------------
   0 C :   -0.273780
   1 N :    0.063341
   2 H :    0.125307
   3 H :    0.126238
   4 H :    0.125762
   5 H :    0.175748
   6 H :    0.151212
   7 H :    0.147986
   8 Pb:   -0.129543
   9 Cl:   -0.167890
  10 Cl:   -0.178234
  11 Cl:   -0.166148

-------------------------------
LOEWDIN REDUCED ORBITAL CHARGES
-------------------------------
  0 C s       :     2.853124  s :     2.853124
      pz      :     1.032664  p :     3.080651
      px      :     1.041890
      py      :     1.006098
      dz2     :     0.028614  d :     0.302997
      dxz     :     0.079147
      dyz     :     0.082101
      dx2y2   :     0.032301
      dxy     :     0.080834
      f0      :     0.005241  f :     0.037008
      f+1     :     0.003934
      f-1     :     0.005691
      f+2     :     0.004380
      f-2     :     0.007029
      f+3     :     0.004882
      f-3     :     0.005853
  1 N s       :     3.002856  s :     3.002856
      pz      :     1.253079  p :     3.762545
      px      :     1.259990
      py      :     1.249475
      dz2     :     0.017902  d :     0.161721
      dxz     :     0.042317
      dyz     :     0.040775
      dx2y2   :     0.019491
      dxy     :     0.041235
      f0      :     0.001465  f :     0.009538
      f+1     :     0.001123
      f-1     :     0.001426
      f+2     :     0.001032
      f-2     :     0.001709
      f+3     :     0.001271
      f-3     :     0.001513
  2 H s       :     0.812455  s :     0.812455
      pz      :     0.022892  p :     0.062238
      px      :     0.021658
      py      :     0.017688
  3 H s       :     0.811358  s :     0.811358
      pz      :     0.019388  p :     0.062405
      px      :     0.022426
      py      :     0.020590
  4 H s       :     0.812012  s :     0.812012
      pz      :     0.020745  p :     0.062226
      px      :     0.020724
      py      :     0.020757
  5 H s       :     0.708697  s :     0.708697
      pz      :     0.032185  p :     0.115554
      px      :     0.037493
      py      :     0.045877
  6 H s       :     0.710399  s :     0.710399
      pz      :     0.055090  p :     0.138389
      px      :     0.036530
      py      :     0.046770
  7 H s       :     0.710730  s :     0.710730
      pz      :     0.046536  p :     0.141284
      px      :     0.066014
      py      :     0.028734
  8 Pbs       :     3.680455  s :     3.680455
      pz      :     2.550583  p :     7.556267
      px      :     2.516642
      py      :     2.489042
      dz2     :     2.151719  d :    10.666581
      dxz     :     2.120345
      dyz     :     2.124276
      dx2y2   :     2.149260
      dxy     :     2.120981
      f0      :     0.040648  f :     0.226240
      f+1     :     0.027874
      f-1     :     0.040429
      f+2     :     0.028760
      f-2     :     0.016360
      f+3     :     0.043593
      f-3     :     0.028578
  9 Cls       :     5.728979  s :     5.728979
      pz      :     3.812315  p :    11.393074
      px      :     3.712790
      py      :     3.867969
      dz2     :     0.009528  d :     0.043302
      dxz     :     0.006797
      dyz     :     0.004300
      dx2y2   :     0.018548
      dxy     :     0.004130
      f0      :     0.000263  f :     0.002535
      f+1     :     0.000404
      f-1     :     0.000304
      f+2     :     0.000458
      f-2     :     0.000081
      f+3     :     0.000768
      f-3     :     0.000257
 10 Cls       :     5.733919  s :     5.733919
      pz      :     3.881905  p :    11.398912
      px      :     3.787805
      py      :     3.729201
      dz2     :     0.006331  d :     0.042906
      dxz     :     0.003318
      dyz     :     0.005851
      dx2y2   :     0.018812
      dxy     :     0.008594
      f0      :     0.000262  f :     0.002497
      f+1     :     0.000148
      f-1     :     0.000345
      f+2     :     0.000334
      f-2     :     0.000154
      f+3     :     0.000874
      f-3     :     0.000380
 11 Cls       :     5.727943  s :     5.727943
      pz      :     3.715316  p :    11.395951
      px      :     3.875530
      py      :     3.805105
      dz2     :     0.022000  d :     0.039850
      dxz     :     0.004039
      dyz     :     0.009727
      dx2y2   :     0.002056
      dxy     :     0.002028
      f0      :     0.000870  f :     0.002403
      f+1     :     0.000265
      f-1     :     0.000919
      f+2     :     0.000127
      f-2     :     0.000109
      f+3     :     0.000082
      f-3     :     0.000031


                      *****************************
                      * MAYER POPULATION ANALYSIS *
                      *****************************

  NA   - Mulliken gross atomic population
  ZA   - Total nuclear charge
  QA   - Mulliken gross atomic charge
  VA   - Mayer's total valence
  BVA  - Mayer's bonded valence
  FA   - Mayer's free valence

  ATOM       NA         ZA         QA         VA         BVA        FA
  0 C      6.2642     6.0000    -0.2642     3.8452     3.8452    -0.0000
  1 N      7.3129     7.0000    -0.3129     3.3291     3.3291     0.0000
  2 H      0.8423     1.0000     0.1577     0.9622     0.9622     0.0000
  3 H      0.8398     1.0000     0.1602     0.9641     0.9641    -0.0000
  4 H      0.8421     1.0000     0.1579     0.9630     0.9630    -0.0000
  5 H      0.7058     1.0000     0.2942     0.9517     0.9517    -0.0000
  6 H      0.7003     1.0000     0.2997     0.9579     0.9579    -0.0000
  7 H      0.7024     1.0000     0.2976     0.9595     0.9595     0.0000
  8 Pb    21.2227    22.0000     0.7773     2.0105     2.0105    -0.0000
  9 Cl    17.5235    17.0000    -0.5235     0.8130     0.8130    -0.0000
 10 Cl    17.5296    17.0000    -0.5296     0.8016     0.8016    -0.0000
 11 Cl    17.5143    17.0000    -0.5143     0.8263     0.8263    -0.0000

  Mayer bond orders larger than 0.1
B(  0-C ,  1-N ) :   0.9046 B(  0-C ,  2-H ) :   0.9704 B(  0-C ,  3-H ) :   0.9691 
B(  0-C ,  4-H ) :   0.9699 B(  1-N ,  5-H ) :   0.8367 B(  1-N ,  6-H ) :   0.8049 
B(  1-N ,  7-H ) :   0.8035 B(  5-H , 11-Cl) :   0.1102 B(  6-H ,  9-Cl) :   0.1491 
B(  7-H , 10-Cl) :   0.1547 B(  8-Pb,  9-Cl) :   0.6455 B(  8-Pb, 10-Cl) :   0.6323 
B(  8-Pb, 11-Cl) :   0.7058 

-------
TIMINGS
-------

Total SCF time: 0 days 0 hours 4 min 50 sec 

Total time                  ....     290.618 sec
Sum of individual times     ....     268.446 sec  ( 92.4%)

Fock matrix formation       ....     262.528 sec  ( 90.3%)
  Coulomb formation         ....     203.681 sec  ( 77.6% of F)
  Split-RI-J                ....      17.853 sec  (  6.8% of F)
  Chain of spheres X        ....     206.840 sec  ( 78.8% of F)
  COS-X 1 center corr.      ....       0.000 sec  (  0.0% of F)
  XC integration            ....      58.909 sec  ( 22.4% of F)
    Basis function eval.    ....      28.391 sec  ( 48.2% of XC)
    Density eval.           ....      12.173 sec  ( 20.7% of XC)
    XC-Functional eval.     ....       2.939 sec  (  5.0% of XC)
    XC-Potential eval.      ....      14.401 sec  ( 24.4% of XC)
Diagonalization             ....       0.524 sec  (  0.2%)
Density matrix formation    ....       0.036 sec  (  0.0%)
Population analysis         ....       0.072 sec  (  0.0%)
Initial guess               ....       0.115 sec  (  0.0%)
Orbital Transformation      ....       0.000 sec  (  0.0%)
Orbital Orthonormalization  ....       0.112 sec  (  0.0%)
DIIS solution               ....       0.130 sec  (  0.0%)
SOSCF solution              ....       0.069 sec  (  0.0%)
Grid generation             ....       4.972 sec  (  1.7%)

------------------------------------------------------------------------------
                              ORCA MP2 CALCULATION
------------------------------------------------------------------------------


----------------------
RI-MP2 ENERGY+GRADIENT
----------------------
Dimension of the basis                    ...  259
Memory devoted to MP2                     ... 1000 MB   
Data format for buffers                   ... DOUBLE
Compression type for matrix containers    ... UNCOMPRESSED
Overall scaling of the MP2 energy         ...   2.700e-01 Eh
Calculating two index integrals           ... done (    0.012 sec)
Cholesky decomposition of the V-matrix    ... done
Cholesky decomposition of V**-1           ... done (    0.028 sec)

-----------------
RI-TRANSFORMATION (AUX index driven)
-----------------

Dimension of the orbital-basis         ... 259
Dimension of the aux-basis             ... 493
Transformation of internal MOs         ...    0-  45
Transformation of internal/external MOs...    0-  45 to   46- 258
Number Format for Storage              ... Double (8 Byte)
Integral mode                          ... Direct

First Phase: integral generation and transformation of MO indices
  Aux angular momentum 0               ... done (    0.415 sec)
  Aux angular momentum 1               ... done (    0.348 sec)
  Aux angular momentum 2               ... done (    0.426 sec)
  Aux angular momentum 3               ... done (    0.246 sec)
  Aux angular momentum 4               ... done (    0.218 sec)
Closing buffer VIJ ( 0.00 GB; CompressionRatio= 1.95)
Closing buffer VIA ( 0.04 GB; CompressionRatio= 1.00)
  Phase 1 completed in     1.753 sec
Second Phase: sorting and transformation of aux index

IJ-Transformation
Memory available                       ... 990 MB 
Max. # MO pairs treated in a batch     ... 46    
# of internal orbitals                 ... 46
# batches for internal orbitals        ... 1
Closing buffer IJV ( 0.00 GB; CompressionRatio= 1.00)
(ij|v) transformation done in     0.092 sec

IA-Transformation
Memory available                       ... 990 MB 
Max. # MO pairs treated in a batch     ... 46    
# of internal orbitals                 ... 46
# batches for internal orbitals        ... 1
Closing buffer IAV ( 0.04 GB; CompressionRatio= 1.00)
(ia|v) transformation done in     0.355 sec

  Phase 2 completed in     0.466 sec
RI-Integral transformation completed in     2.220 sec
Opening buffers                              ... done

Starting loop over batches of integrals:

Operator 0  - window                       ... (  0- 45)x( 46-258)
Operator 0  - Memory available             ...  1000 MB
Operator 0  - Memory needed per MO         ...   1.6 MB
Operator 0  - Number of orbitals per batch ... 46
Operator 0  - Number of batches            ... 1

OPERATOR  0   PASS   0:  MOs     0 ...   45
  Reading integrals       ... ok
  Internal MO   2
  Internal MO   5
  Internal MO   8
  Internal MO  11
  Internal MO  14
  Internal MO  17
  Internal MO  20
  Internal MO  23
  Internal MO  26
  Internal MO  29
  Internal MO  32
  Internal MO  35
  Internal MO  38
  Internal MO  41
  Internal MO  44
Closing buffer GIPV ( 0.04 GB; CompressionRatio= 1.00)
Time spent in pair loops =    43.575 sec

-----------------------------------------------
 RI-MP2 CORRELATION ENERGY:     -0.582189457 Eh
-----------------------------------------------


---------------------
MP2 DENSITY FORMATION
---------------------

Completing the external part of the density      ... done
Storing the unrelaxed density                    ... done

Calculating the xc-kernel                        ... done
Calculating G(D)                                 ... done
Completing the Lagrangian                        ... done
Solving the Z-vector equations                   ... 

------------------------------------------------------------------------------
                           ORCA CP-SCF CALCULATION
------------------------------------------------------------------------------

Input orbitals are from        ... PbMACl3_mp2_md2_17.orca.gbw
Input Perturbation             ... PbMACl3_mp2_md2_17.orca.pin.tmp
Wavefunction output            ... PbMACl3_mp2_md2_17.orca.pout.tmp
Perturbation mode              ... Real perturbation
Solver                         ... DIIS
   MaxDIIS                     ... 20
   Levelshift                  ...    3.000e-01 Eh
Max. number of iterations      ... 128
Convergence tolerance          ... 1.000e-08
Integral handling              ... Direct
COSX GridX                     ... 1
Number of perturbations        ... 1
Number of operators            ... 1
Orbital ranges used for CP-SCF:
 Operator 0:  Orbitals   0... 45  to  46...258
DFT calculation                         ... on
Exchange functional (SCF)               ... B88
Exchange functional (CP-SCF)            ... B88
   X-Alpha parameter    XAlpha (SCF)    ...  0.666667
   X-Alpha parameter    XAlpha (CP-SCF) ...  0.666667
   Becke's b parameter  XBeta (SCF)     ...  0.004200
   Becke's b parameter  XBeta (CP-SCF)  ...  0.004200
Correlation functional (SCF)            ... LYP
Correlation functional (CP-SCF)         ... LYP
 LDA part of GGA corr.  LDAOpt (SCF)    ... VWN-3
 LDA part of GGA corr.  LDAOpt (CP-SCF) ... VWN-3
Hybrid DFT                              ... on
   Exchange mixing (SCF)                ...  0.530
   Exchange mixing (CP-SCF)             ...  0.530
   GGA exch. scaling(SCF)               ...  0.470
   GGA exch. scaling (CP-SCF)           ...  0.470
   GGA corr. scaling (SCF)              ...  0.730
   GGA corr. scaling (CP-SCF)           ...  0.730
The RIJCOSX approximation is active
Variables per vector in CP-SCF ... 9798
Number of vectors sought       ... 1
Calculating the xc-kernel      ... done

Solving the CP-SCF equations by a DIIS algorithm

-----------------
CP-SCF ITERATIONS
-----------------
  Iteration   0: MaxR=  0.088596588
  Iteration   1: MaxR=  0.042057819
  Iteration   2: MaxR=  0.011909815
  Iteration   3: MaxR=  0.004733910
  Iteration   4: MaxR=  0.002052034
  Iteration   5: MaxR=  0.000780657
  Iteration   6: MaxR=  0.000311695
  Iteration   7: MaxR=  0.000093267
  Iteration   8: MaxR=  0.000035201
  Iteration   9: MaxR=  0.000009653
  Iteration  10: MaxR=  0.000004026
  Iteration  11: MaxR=  0.000001554
  Iteration  12: MaxR=  0.000000692
  Iteration  13: MaxR=  0.000000205
  Iteration  14: MaxR=  0.000000074
  Iteration  15: MaxR=  0.000000028
  Iteration  16: MaxR=  0.000000009
                              *** THE CP-SCF HAS CONVERGED *** 
done
Finalizing the relaxed density                   ... done
Transforming P to the AO basis                   ... done
Storing the relaxed density                      ... done

------------------------------------
ENERGY WEIGHTED DENSITY FINALIZATION
------------------------------------

Gathering the parts of the W-matrix              ... done
Forming the Z-density                            ... done
Transforming Z to the AO basis                   ... done
Calculating G(Z)                                 ... done
Finalizing the W-matrix                          ... done
Transforming W to the AO basis and storing       ... done
Entering the RIJONX and RIJCOSX sections
Starting the three-index derivative integrals:
Operator 0  - Memory available             ...  1000 MB
Operator 0  - Memory needed per MO         ...   1.0 MB
Operator 0  - Number of orbitals per batch ... 46
Operator 0  - Number of batches            ... 1

OPERATOR  0   PASS   0:  MOs     0 ...   45

----------------------------------
MP2 DERIVATIVE INTEGRAL GENERATION
----------------------------------


Input Correlated Electron Density   ... PbMACl3_mp2_md2_17.orca.pmp2re
Input Energy Weighted Density       ... PbMACl3_mp2_md2_17.orca.wmp2.tmp
Input SCF Electron Density          ... PbMACl3_mp2_md2_17.orca.scfp.tmp

One-Electron Terms    ...
  ECP gradient                                           ... One-Electron Terms done

-----------------------------------------------------------
MP2 COSX Grid Generation
-----------------------------------------------------------

General Integration Accuracy     IntAcc      ...  4.340
Radial Grid Type                 RadialGrid  ... Gauss-Chebyshev
Angular Grid (max. acc.)         AngularGrid ... Lebedev-302
Angular grid pruning method      GridPruning ... 3 (G Style)
Weight generation scheme         WeightScheme... Becke
Basis function cutoff            BFCut       ...    1.0000e-11
Integration weight cutoff        WCut        ...    1.0000e-14
Grids for H and He will be reduced by one unit

# of grid points (after initial pruning)     ...  57718 (   0.0 sec)
# of grid points (after weights+screening)   ...  54236 (   0.1 sec)
nearest neighbour list constructed           ...    0.0 sec
Grid point re-assignment to atoms done       ...    0.0 sec
Grid point division into batches done        ...    0.2 sec
Reduced shell lists constructed in    1.5 sec

Total number of grid points                  ...    54236
Total number of batches                      ...      853
Average number of points per batch           ...       63
Average number of grid points per atom       ...     4520
Average number of shells per batch           ...    58.19 (57.62%)
Average number of basis functions per batch  ...   154.96 (59.83%)
Average number of large shells per batch     ...    44.30 (76.13%)
Average number of large basis fcns per batch ...   114.89 (74.14%)
Maximum spatial batch extension              ...  40.43, 34.04, 31.96 au
Average spatial batch extension              ...   3.06,  3.08,  3.06 au

Overlap Fitting                  UseSFitting ... on
Two electron COSX terms .... 
Integration Timings:
Total Time                  =    84.8 sec
Basis fcn evaluation        =     0.6 sec
Density evaluation          =     0.9 sec
Integral evaluation         =    81.5 sec
K(P) evaluation             =     0.7 sec
                          .... COSX two electron terms done
COSX two-electron contribution to the gradient
     0:    -0.017240    -0.022218    -0.021464
     1:     0.052112     0.068663     0.049875
     2:     0.100193    -0.081578     0.107539
     3:    -0.103850     0.097722     0.089701
     4:     0.095676     0.099493    -0.096652
     5:    -0.114228    -0.115473     0.096486
     6:     0.095659    -0.112086    -0.098993
     7:    -0.107070     0.070295    -0.124398
     8:    -0.033154    -0.024196    -0.050257
     9:     0.062755     0.000083    -0.029295
    10:    -0.032919     0.056281     0.009833
    11:     0.002514    -0.036623     0.067039
Exchange-correlation gradient    ... done
Dispersion correction            ... 
Entering the calculation of the dispersion correction...

Checking the input atom types...

Done
done

                *********************************************
                * UNRELAXED MP2 DENSITY POPULATION ANALYSIS *
                *********************************************

------------------------------------------------------------------------------
                           ORCA POPULATION ANALYSIS
------------------------------------------------------------------------------
Input electron density              ... PbMACl3_mp2_md2_17.orca.pmp2ur
BaseName (.gbw .S,...)              ... PbMACl3_mp2_md2_17.orca

                    ********************************
                    * MULLIKEN POPULATION ANALYSIS *
                    ********************************

-----------------------
MULLIKEN ATOMIC CHARGES
-----------------------
   0 C :   -0.268597
   1 N :   -0.312060
   2 H :    0.158767
   3 H :    0.161143
   4 H :    0.158942
   5 H :    0.293072
   6 H :    0.298346
   7 H :    0.296276
   8 Pb:    0.762707
   9 Cl:   -0.517270
  10 Cl:   -0.523330
  11 Cl:   -0.507998
Sum of atomic charges:   -0.0000000

--------------------------------
MULLIKEN REDUCED ORBITAL CHARGES
--------------------------------
  0 C s       :     3.282095  s :     3.282095
      pz      :     0.976754  p :     2.901010
      px      :     0.989507
      py      :     0.934749
      dz2     :     0.008919  d :     0.078227
      dxz     :     0.019898
      dyz     :     0.019725
      dx2y2   :     0.009714
      dxy     :     0.019971
      f0      :     0.000512  f :     0.007264
      f+1     :     0.000677
      f-1     :     0.000896
      f+2     :     0.000945
      f-2     :     0.002770
      f+3     :     0.000681
      f-3     :     0.000783
  1 N s       :     3.431874  s :     3.431874
      pz      :     1.275238  p :     3.818529
      px      :     1.277762
      py      :     1.265529
      dz2     :     0.008193  d :     0.058488
      dxz     :     0.014391
      dyz     :     0.013465
      dx2y2   :     0.008761
      dxy     :     0.013678
      f0      :     0.000248  f :     0.003169
      f+1     :     0.000315
      f-1     :     0.000346
      f+2     :     0.000366
      f-2     :     0.001267
      f+3     :     0.000308
      f-3     :     0.000318
  2 H s       :     0.818496  s :     0.818496
      pz      :     0.008633  p :     0.022737
      px      :     0.008086
      py      :     0.006018
  3 H s       :     0.816066  s :     0.816066
      pz      :     0.007238  p :     0.022790
      px      :     0.007748
      py      :     0.007804
  4 H s       :     0.818310  s :     0.818310
      pz      :     0.007106  p :     0.022748
      px      :     0.007730
      py      :     0.007912
  5 H s       :     0.667012  s :     0.667012
      pz      :     0.010046  p :     0.039916
      px      :     0.012965
      py      :     0.016906
  6 H s       :     0.655713  s :     0.655713
      pz      :     0.019171  p :     0.045940
      px      :     0.011007
      py      :     0.015763
  7 H s       :     0.656683  s :     0.656683
      pz      :     0.015511  p :     0.047041
      px      :     0.022470
      py      :     0.009060
  8 Pbs       :     3.902728  s :     3.902728
      pz      :     2.390732  p :     7.095294
      px      :     2.357569
      py      :     2.346992
      dz2     :     2.025718  d :    10.128532
      dxz     :     2.027963
      dyz     :     2.026853
      dx2y2   :     2.023425
      dxy     :     2.024573
      f0      :     0.018650  f :     0.110740
      f+1     :     0.015977
      f-1     :     0.016525
      f+2     :     0.014687
      f-2     :     0.011426
      f+3     :     0.017072
      f-3     :     0.016402
  9 Cls       :     5.948619  s :     5.948619
      pz      :     3.864216  p :    11.502535
      px      :     3.720857
      py      :     3.917462
      dz2     :     0.012663  d :     0.062313
      dxz     :     0.012909
      dyz     :     0.010527
      dx2y2   :     0.015203
      dxy     :     0.011011
      f0      :     0.000489  f :     0.003803
      f+1     :     0.000558
      f-1     :     0.000504
      f+2     :     0.000610
      f-2     :     0.000456
      f+3     :     0.000643
      f-3     :     0.000544
 10 Cls       :     5.950176  s :     5.950176
      pz      :     3.922694  p :    11.506940
      px      :     3.844516
      py      :     3.739731
      dz2     :     0.011049  d :     0.062401
      dxz     :     0.010150
      dyz     :     0.011075
      dx2y2   :     0.016678
      dxy     :     0.013449
      f0      :     0.000514  f :     0.003813
      f+1     :     0.000476
      f-1     :     0.000547
      f+2     :     0.000516
      f-2     :     0.000476
      f+3     :     0.000715
      f-3     :     0.000568
 11 Cls       :     5.947546  s :     5.947546
      pz      :     3.726062  p :    11.495912
      px      :     3.920683
      py      :     3.849167
      dz2     :     0.016973  d :     0.060763
      dxz     :     0.010875
      dyz     :     0.013817
      dx2y2   :     0.009637
      dxy     :     0.009461
      f0      :     0.000710  f :     0.003778
      f+1     :     0.000548
      f-1     :     0.000745
      f+2     :     0.000485
      f-2     :     0.000467
      f+3     :     0.000422
      f-3     :     0.000401


                     *******************************
                     * LOEWDIN POPULATION ANALYSIS *
                     *******************************

----------------------
LOEWDIN ATOMIC CHARGES
----------------------
   0 C :   -0.276805
   1 N :    0.062488
   2 H :    0.126043
   3 H :    0.126958
   4 H :    0.126503
   5 H :    0.175146
   6 H :    0.150609
   7 H :    0.147385
   8 Pb:   -0.139021
   9 Cl:   -0.163617
  10 Cl:   -0.173892
  11 Cl:   -0.161797

-------------------------------
LOEWDIN REDUCED ORBITAL CHARGES
-------------------------------
  0 C s       :     2.852522  s :     2.852522
      pz      :     1.030278  p :     3.073585
      px      :     1.039434
      py      :     1.003873
      dz2     :     0.030414  d :     0.311927
      dxz     :     0.080959
      dyz     :     0.083869
      dx2y2   :     0.034070
      dxy     :     0.082615
      f0      :     0.005468  f :     0.038772
      f+1     :     0.004150
      f-1     :     0.005901
      f+2     :     0.004592
      f-2     :     0.007489
      f+3     :     0.005110
      f-3     :     0.006062
  1 N s       :     3.002358  s :     3.002358
      pz      :     1.249159  p :     3.750730
      px      :     1.256056
      py      :     1.245515
      dz2     :     0.019974  d :     0.173518
      dxz     :     0.044856
      dyz     :     0.043328
      dx2y2   :     0.021585
      dxy     :     0.043776
      f0      :     0.001648  f :     0.010906
      f+1     :     0.001302
      f-1     :     0.001601
      f+2     :     0.001210
      f-2     :     0.002000
      f+3     :     0.001456
      f-3     :     0.001689
  2 H s       :     0.809877  s :     0.809877
      pz      :     0.023542  p :     0.064079
      px      :     0.022278
      py      :     0.018260
  3 H s       :     0.808803  s :     0.808803
      pz      :     0.019967  p :     0.064239
      px      :     0.023067
      py      :     0.021205
  4 H s       :     0.809436  s :     0.809436
      pz      :     0.021363  p :     0.064061
      px      :     0.021322
      py      :     0.021375
  5 H s       :     0.707794  s :     0.707794
      pz      :     0.032641  p :     0.117060
      px      :     0.038005
      py      :     0.046414
  6 H s       :     0.709639  s :     0.709639
      pz      :     0.055507  p :     0.139751
      px      :     0.036997
      py      :     0.047248
  7 H s       :     0.709957  s :     0.709957
      pz      :     0.047049  p :     0.142658
      px      :     0.066432
      py      :     0.029177
  8 Pbs       :     3.664412  s :     3.664412
      pz      :     2.556497  p :     7.576124
      px      :     2.523295
      py      :     2.496332
      dz2     :     2.145753  d :    10.636376
      dxz     :     2.114297
      dyz     :     2.118255
      dx2y2   :     2.143204
      dxy     :     2.114867
      f0      :     0.045734  f :     0.262110
      f+1     :     0.033071
      f-1     :     0.045453
      f+2     :     0.033897
      f-2     :     0.021586
      f+3     :     0.048575
      f-3     :     0.033793
  9 Cls       :     5.724653  s :     5.724653
      pz      :     3.798119  p :    11.350924
      px      :     3.699069
      py      :     3.853735
      dz2     :     0.017440  d :     0.082655
      dxz     :     0.014712
      dyz     :     0.012169
      dx2y2   :     0.026387
      dxy     :     0.011947
      f0      :     0.000670  f :     0.005385
      f+1     :     0.000818
      f-1     :     0.000701
      f+2     :     0.000870
      f-2     :     0.000479
      f+3     :     0.001182
      f-3     :     0.000666
 10 Cls       :     5.729574  s :     5.729574
      pz      :     3.867614  p :    11.356615
      px      :     3.773611
      py      :     3.715390
      dz2     :     0.014198  d :     0.082352
      dxz     :     0.011211
      dyz     :     0.013655
      dx2y2   :     0.026733
      dxy     :     0.016555
      f0      :     0.000655  f :     0.005350
      f+1     :     0.000541
      f-1     :     0.000746
      f+2     :     0.000744
      f-2     :     0.000552
      f+3     :     0.001309
      f-3     :     0.000804
 11 Cls       :     5.723625  s :     5.723625
      pz      :     3.701675  p :    11.353944
      px      :     3.861339
      py      :     3.790931
      dz2     :     0.029832  d :     0.078997
      dxz     :     0.011807
      dyz     :     0.017609
      dx2y2   :     0.009898
      dxy     :     0.009851
      f0      :     0.001297  f :     0.005231
      f+1     :     0.000674
      f-1     :     0.001352
      f+2     :     0.000524
      f-2     :     0.000504
      f+3     :     0.000467
      f-3     :     0.000412


                      *****************************
                      * MAYER POPULATION ANALYSIS *
                      *****************************

  NA   - Mulliken gross atomic population
  ZA   - Total nuclear charge
  QA   - Mulliken gross atomic charge
  VA   - Mayer's total valence
  BVA  - Mayer's bonded valence
  FA   - Mayer's free valence

  ATOM       NA         ZA         QA         VA         BVA        FA
  0 C      6.2686     6.0000    -0.2686     3.8908     3.7759     0.1150
  1 N      7.3121     7.0000    -0.3121     3.4040     3.2576     0.1465
  2 H      0.8412     1.0000     0.1588     0.9649     0.9464     0.0185
  3 H      0.8389     1.0000     0.1611     0.9668     0.9483     0.0186
  4 H      0.8411     1.0000     0.1589     0.9656     0.9472     0.0185
  5 H      0.7069     1.0000     0.2931     0.9545     0.9335     0.0210
  6 H      0.7017     1.0000     0.2983     0.9606     0.9399     0.0207
  7 H      0.7037     1.0000     0.2963     0.9623     0.9415     0.0209
  8 Pb    21.2373    22.0000     0.7627     2.3160     1.9507     0.3653
  9 Cl    17.5173    17.0000    -0.5173     1.0485     0.7884     0.2601
 10 Cl    17.5233    17.0000    -0.5233     1.0378     0.7772     0.2606
 11 Cl    17.5080    17.0000    -0.5080     1.0609     0.8010     0.2598

  Mayer bond orders larger than 0.1
B(  0-C ,  1-N ) :   0.8820 B(  0-C ,  2-H ) :   0.9552 B(  0-C ,  3-H ) :   0.9539 
B(  0-C ,  4-H ) :   0.9547 B(  1-N ,  5-H ) :   0.8210 B(  1-N ,  6-H ) :   0.7900 
B(  1-N ,  7-H ) :   0.7886 B(  5-H , 11-Cl) :   0.1083 B(  6-H ,  9-Cl) :   0.1466 
B(  7-H , 10-Cl) :   0.1520 B(  8-Pb,  9-Cl) :   0.6260 B(  8-Pb, 10-Cl) :   0.6132 
B(  8-Pb, 11-Cl) :   0.6846 


                *******************************************
                * RELAXED MP2 DENSITY POPULATION ANALYSIS *
                *******************************************

------------------------------------------------------------------------------
                           ORCA POPULATION ANALYSIS
------------------------------------------------------------------------------
Input electron density              ... PbMACl3_mp2_md2_17.orca.pmp2re
BaseName (.gbw .S,...)              ... PbMACl3_mp2_md2_17.orca

                    ********************************
                    * MULLIKEN POPULATION ANALYSIS *
                    ********************************

-----------------------
MULLIKEN ATOMIC CHARGES
-----------------------
   0 C :   -0.286267
   1 N :   -0.306560
   2 H :    0.162335
   3 H :    0.164443
   4 H :    0.162521
   5 H :    0.287182
   6 H :    0.291150
   7 H :    0.289460
   8 Pb:    0.711323
   9 Cl:   -0.492914
  10 Cl:   -0.498892
  11 Cl:   -0.483781
Sum of atomic charges:   -0.0000000

--------------------------------
MULLIKEN REDUCED ORBITAL CHARGES
--------------------------------
  0 C s       :     3.284605  s :     3.284605
      pz      :     0.983243  p :     2.920540
      px      :     0.995595
      py      :     0.941701
      dz2     :     0.009103  d :     0.074022
      dxz     :     0.018348
      dyz     :     0.018219
      dx2y2   :     0.009892
      dxy     :     0.018459
      f0      :     0.000493  f :     0.007101
      f+1     :     0.000668
      f-1     :     0.000882
      f+2     :     0.000937
      f-2     :     0.002687
      f+3     :     0.000666
      f-3     :     0.000768
  1 N s       :     3.432765  s :     3.432765
      pz      :     1.273342  p :     3.813456
      px      :     1.276659
      py      :     1.263455
      dz2     :     0.008357  d :     0.057224
      dxz     :     0.013866
      dyz     :     0.012947
      dx2y2   :     0.008972
      dxy     :     0.013083
      f0      :     0.000244  f :     0.003115
      f+1     :     0.000314
      f-1     :     0.000348
      f+2     :     0.000366
      f-2     :     0.001222
      f+3     :     0.000303
      f-3     :     0.000319
  2 H s       :     0.815299  s :     0.815299
      pz      :     0.008453  p :     0.022366
      px      :     0.007940
      py      :     0.005972
  3 H s       :     0.813141  s :     0.813141
      pz      :     0.007139  p :     0.022416
      px      :     0.007607
      py      :     0.007670
  4 H s       :     0.815105  s :     0.815105
      pz      :     0.006999  p :     0.022374
      px      :     0.007604
      py      :     0.007770
  5 H s       :     0.673296  s :     0.673296
      pz      :     0.009945  p :     0.039522
      px      :     0.012850
      py      :     0.016727
  6 H s       :     0.663348  s :     0.663348
      pz      :     0.018989  p :     0.045503
      px      :     0.010911
      py      :     0.015602
  7 H s       :     0.663969  s :     0.663969
      pz      :     0.015323  p :     0.046571
      px      :     0.022214
      py      :     0.009034
  8 Pbs       :     3.919210  s :     3.919210
      pz      :     2.399953  p :     7.132313
      px      :     2.370398
      py      :     2.361963
      dz2     :     2.024396  d :    10.128050
      dxz     :     2.028852
      dyz     :     2.027393
      dx2y2   :     2.022116
      dxy     :     2.025293
      f0      :     0.018320  f :     0.109104
      f+1     :     0.015803
      f-1     :     0.016204
      f+2     :     0.014517
      f-2     :     0.011357
      f+3     :     0.016686
      f-3     :     0.016216
  9 Cls       :     5.949117  s :     5.949117
      pz      :     3.854453  p :    11.477526
      px      :     3.712129
      py      :     3.910945
      dz2     :     0.012789  d :     0.062448
      dxz     :     0.012751
      dyz     :     0.010680
      dx2y2   :     0.015142
      dxy     :     0.011086
      f0      :     0.000491  f :     0.003823
      f+1     :     0.000560
      f-1     :     0.000511
      f+2     :     0.000612
      f-2     :     0.000458
      f+3     :     0.000642
      f-3     :     0.000549
 10 Cls       :     5.950732  s :     5.950732
      pz      :     3.916970  p :    11.481763
      px      :     3.833682
      py      :     3.731112
      dz2     :     0.010993  d :     0.062563
      dxz     :     0.010241
      dyz     :     0.011185
      dx2y2   :     0.016909
      dxy     :     0.013234
      f0      :     0.000517  f :     0.003834
      f+1     :     0.000478
      f-1     :     0.000548
      f+2     :     0.000519
      f-2     :     0.000478
      f+3     :     0.000720
      f-3     :     0.000572
 11 Cls       :     5.948099  s :     5.948099
      pz      :     3.717622  p :    11.471178
      px      :     3.914437
      py      :     3.839119
      dz2     :     0.016985  d :     0.060713
      dxz     :     0.010961
      dyz     :     0.013592
      dx2y2   :     0.009652
      dxy     :     0.009523
      f0      :     0.000712  f :     0.003791
      f+1     :     0.000552
      f-1     :     0.000744
      f+2     :     0.000486
      f-2     :     0.000469
      f+3     :     0.000425
      f-3     :     0.000402


                     *******************************
                     * LOEWDIN POPULATION ANALYSIS *
                     *******************************

----------------------
LOEWDIN ATOMIC CHARGES
----------------------
   0 C :   -0.286825
   1 N :    0.058538
   2 H :    0.128008
   3 H :    0.128826
   4 H :    0.128468
   5 H :    0.173957
   6 H :    0.148955
   7 H :    0.145824
   8 Pb:   -0.163354
   9 Cl:   -0.151373
  10 Cl:   -0.161451
  11 Cl:   -0.149574

-------------------------------
LOEWDIN REDUCED ORBITAL CHARGES
-------------------------------
  0 C s       :     2.853859  s :     2.853859
      pz      :     1.034710  p :     3.086914
      px      :     1.043756
      py      :     1.008448
      dz2     :     0.030645  d :     0.307515
      dxz     :     0.079401
      dyz     :     0.082198
      dx2y2   :     0.034304
      dxy     :     0.080967
      f0      :     0.005450  f :     0.038537
      f+1     :     0.004130
      f-1     :     0.005882
      f+2     :     0.004558
      f-2     :     0.007388
      f+3     :     0.005080
      f-3     :     0.006050
  1 N s       :     3.004555  s :     3.004555
      pz      :     1.249688  p :     3.752216
      px      :     1.256706
      py      :     1.245822
      dz2     :     0.020222  d :     0.173711
      dxz     :     0.044745
      dyz     :     0.043224
      dx2y2   :     0.021893
      dxy     :     0.043626
      f0      :     0.001666  f :     0.010980
      f+1     :     0.001307
      f-1     :     0.001610
      f+2     :     0.001211
      f-2     :     0.002017
      f+3     :     0.001466
      f-3     :     0.001703
  2 H s       :     0.807827  s :     0.807827
      pz      :     0.023526  p :     0.064165
      px      :     0.022286
      py      :     0.018353
  3 H s       :     0.806857  s :     0.806857
      pz      :     0.020011  p :     0.064317
      px      :     0.023075
      py      :     0.021231
  4 H s       :     0.807397  s :     0.807397
      pz      :     0.021404  p :     0.064135
      px      :     0.021341
      py      :     0.021390
  5 H s       :     0.709002  s :     0.709002
      pz      :     0.032583  p :     0.117041
      px      :     0.038035
      py      :     0.046423
  6 H s       :     0.711463  s :     0.711463
      pz      :     0.055411  p :     0.139582
      px      :     0.036952
      py      :     0.047218
  7 H s       :     0.711685  s :     0.711685
      pz      :     0.047020  p :     0.142491
      px      :     0.066299
      py      :     0.029172
  8 Pbs       :     3.678516  s :     3.678516
      pz      :     2.559883  p :     7.595252
      px      :     2.530090
      py      :     2.505280
      dz2     :     2.143130  d :    10.629623
      dxz     :     2.113948
      dyz     :     2.117493
      dx2y2   :     2.140611
      dxy     :     2.114442
      f0      :     0.045322  f :     0.259963
      f+1     :     0.032795
      f-1     :     0.045133
      f+2     :     0.033683
      f-2     :     0.021402
      f+3     :     0.048136
      f-3     :     0.033490
  9 Cls       :     5.727984  s :     5.727984
      pz      :     3.791351  p :    11.334023
      px      :     3.693857
      py      :     3.848814
      dz2     :     0.017720  d :     0.083883
      dxz     :     0.014843
      dyz     :     0.012344
      dx2y2   :     0.026867
      dxy     :     0.012109
      f0      :     0.000683  f :     0.005483
      f+1     :     0.000829
      f-1     :     0.000708
      f+2     :     0.000892
      f-2     :     0.000484
      f+3     :     0.001211
      f-3     :     0.000677
 10 Cls       :     5.732923  s :     5.732923
      pz      :     3.863239  p :    11.339535
      px      :     3.766052
      py      :     3.710244
      dz2     :     0.014355  d :     0.083550
      dxz     :     0.011323
      dyz     :     0.013835
      dx2y2   :     0.027332
      dxy     :     0.016704
      f0      :     0.000663  f :     0.005443
      f+1     :     0.000547
      f-1     :     0.000763
      f+2     :     0.000749
      f-2     :     0.000559
      f+3     :     0.001345
      f-3     :     0.000817
 11 Cls       :     5.726971  s :     5.726971
      pz      :     3.696711  p :    11.337108
      px      :     3.856566
      py      :     3.783832
      dz2     :     0.030476  d :     0.080162
      dxz     :     0.011969
      dyz     :     0.017822
      dx2y2   :     0.009958
      dxy     :     0.009937
      f0      :     0.001328  f :     0.005333
      f+1     :     0.000684
      f-1     :     0.001396
      f+2     :     0.000531
      f-2     :     0.000510
      f+3     :     0.000470
      f-3     :     0.000414


                      *****************************
                      * MAYER POPULATION ANALYSIS *
                      *****************************

  NA   - Mulliken gross atomic population
  ZA   - Total nuclear charge
  QA   - Mulliken gross atomic charge
  VA   - Mayer's total valence
  BVA  - Mayer's bonded valence
  FA   - Mayer's free valence

  ATOM       NA         ZA         QA         VA         BVA        FA
  0 C      6.2863     6.0000    -0.2863     3.8924     3.7778     0.1146
  1 N      7.3066     7.0000    -0.3066     3.4117     3.2657     0.1460
  2 H      0.8377     1.0000     0.1623     0.9639     0.9455     0.0184
  3 H      0.8356     1.0000     0.1644     0.9661     0.9476     0.0185
  4 H      0.8375     1.0000     0.1625     0.9647     0.9463     0.0184
  5 H      0.7128     1.0000     0.2872     0.9610     0.9402     0.0209
  6 H      0.7089     1.0000     0.2911     0.9677     0.9471     0.0206
  7 H      0.7105     1.0000     0.2895     0.9690     0.9483     0.0208
  8 Pb    21.2887    22.0000     0.7113     2.3935     2.0335     0.3601
  9 Cl    17.4929    17.0000    -0.4929     1.0925     0.8338     0.2587
 10 Cl    17.4989    17.0000    -0.4989     1.0819     0.8227     0.2592
 11 Cl    17.4838    17.0000    -0.4838     1.1039     0.8455     0.2585

  Mayer bond orders larger than 0.1
B(  0-C ,  1-N ) :   0.8901 B(  0-C ,  2-H ) :   0.9524 B(  0-C ,  3-H ) :   0.9511 
B(  0-C ,  4-H ) :   0.9519 B(  1-N ,  5-H ) :   0.8173 B(  1-N ,  6-H ) :   0.7861 
B(  1-N ,  7-H ) :   0.7843 B(  5-H , 11-Cl) :   0.1177 B(  6-H ,  9-Cl) :   0.1571 
B(  7-H , 10-Cl) :   0.1626 B(  8-Pb,  9-Cl) :   0.6518 B(  8-Pb, 10-Cl) :   0.6380 
B(  8-Pb, 11-Cl) :   0.7124 


-------
TIMINGS
-------

Total time                :  463.734 sec
Integral trafo            :    2.228 sec (  0.5%)
I/O of integrals          :    0.136 sec (  0.0%)
K(i,j) Operators          :    6.051 sec (  1.3%)
T(i,j) pair energies      :    1.150 sec (  0.2%)
V-calculation             :    0.012 sec (  0.0%)
V**(-1/2)                 :    0.028 sec (  0.0%)
Gamma(ia|P)               :    5.416 sec (  1.2%)
Gamma-Trafo               :    0.728 sec (  0.2%)
D(virtual)                :    2.384 sec (  0.5%)
D(internal)               :    4.093 sec (  0.9%)
W(virtual)                :    4.812 sec (  1.0%)
W(internal)               :   13.596 sec (  2.9%)
L(virtual)                :    4.764 sec (  1.0%)
L(internal)               :    0.209 sec (  0.0%)
G(D)                      :   13.722 sec (  3.0%)
G(Z)                      :   13.915 sec (  3.0%)
Z-Vector Solution         :  285.130 sec ( 61.5%)
Z-Vector Solution         :  285.130 sec ( 61.5%)
3-Index Derivative 
+ Separable RIJ part      :    4.052 sec (  0.9%)
2-Index Derivative 
+ Separable RIJ part      :    0.025 sec (  0.0%)
Separable Gradient (COSX) :   99.754 sec ( 21.5%)


---------------------------------------
MP2 TOTAL ENERGY:    -1669.599314173 Eh
---------------------------------------

The final MP2 gradient
  0:   0.00059780   0.00043180  -0.00141610
  1:  -0.00680630   0.00382465  -0.01236599
  2:   0.00270760  -0.00217453   0.00292015
  3:  -0.00254769   0.00245515   0.00284219
  4:   0.00283067   0.00332716  -0.00202279
  5:  -0.01083399  -0.00928183  -0.00088801
  6:  -0.00457008  -0.00746716  -0.00490529
  7:  -0.00315129  -0.00737806  -0.01050898
  8:   0.03968150   0.03662039   0.04055769
  9:  -0.02287084  -0.00152770   0.00757182
 10:   0.01108907  -0.01993372   0.00022293
 11:  -0.00560395   0.00139900  -0.02248581

-----------------------------------
NORM OF THE MP2 GRADIENT:  0.083446
-----------------------------------

Entering the calculation of the dispersion correction...

Checking the input atom types...

Done


-------------------------------------------------------------------------------
                          DFT DISPERSION CORRECTION                            
                                                                               
                                DFTD3 V2.1  Rev 6                               
                          USING Becke-Johnson damping                          
-------------------------------------------------------------------------------
The B2PLYP functional is recognized
Active option DFTDOPT                   ...         4   

molecular C6(AA) [au] = 4847.044008 


            DFT-D V3
 parameters
 s6 scaling factor         :     0.6400 
 a1 scaling factor         :     0.3065 
 s8 scaling factor         :     0.9147 
 a2 scaling factor         :     5.0570 
 ad hoc parameters k1-k3   :    16.0000     1.3333    -4.0000 

 Edisp/kcal,au: -9.118894060718  -0.014531881135 
 E6   /kcal   :  -4.181205421 
 E8   /kcal   :  -4.937688639 
 % E8         :  54.147889058 

-------------------------   ----------------
Dispersion correction           -0.014531881
-------------------------   ----------------


-------------------------   --------------------
FINAL SINGLE POINT ENERGY     -1669.613846054416
-------------------------   --------------------


                            ***************************************
                            *     ORCA property calculations      *
                            ***************************************


  WARNING: The energy has been calculated at the MP2 level but the densities
           used in the property calculations are still SCF densities
           MP2 response densities have not been calculated 
           use %mp2 Density relaxed end
           or  %mp2 Density unrelaxed end

                                    ---------------------
                                    Active property flags
                                    ---------------------
   (+) Dipole Moment


------------------------------------------------------------------------------
                       ORCA ELECTRIC PROPERTIES CALCULATION
------------------------------------------------------------------------------

Dipole Moment Calculation                       ... on
Quadrupole Moment Calculation                   ... off
Polarizability Calculation                      ... off
GBWName                                         ... PbMACl3_mp2_md2_17.orca.gbw
Electron density file                           ... PbMACl3_mp2_md2_17.orca.scfp.tmp

-------------
DIPOLE MOMENT
-------------
                                X             Y             Z
Electronic contribution:    -64.71560     -68.38896     -69.40089
Nuclear contribution   :     65.71056      69.58284      70.18034
                        -----------------------------------------
Total Dipole Moment    :      0.99496       1.19389       0.77945
                        -----------------------------------------
Magnitude (a.u.)       :      1.73864
Magnitude (Debye)      :      4.41926


                         *** MP2 UNRELAXED DENSITY ***

------------------------------------------------------------------------------
                       ORCA ELECTRIC PROPERTIES CALCULATION
------------------------------------------------------------------------------

Dipole Moment Calculation                       ... on
Quadrupole Moment Calculation                   ... off
Polarizability Calculation                      ... off
GBWName                                         ... PbMACl3_mp2_md2_17.orca.gbw
Electron density file                           ... PbMACl3_mp2_md2_17.orca.pmp2ur

-------------
DIPOLE MOMENT
-------------
                                X             Y             Z
Electronic contribution:    -64.71409     -68.38844     -69.39636
Nuclear contribution   :     65.71056      69.58284      70.18034
                        -----------------------------------------
Total Dipole Moment    :      0.99647       1.19441       0.78398
                        -----------------------------------------
Magnitude (a.u.)       :      1.74189
Magnitude (Debye)      :      4.42754


                           *** MP2 RELAXED DENSITY ***

------------------------------------------------------------------------------
                       ORCA ELECTRIC PROPERTIES CALCULATION
------------------------------------------------------------------------------

Dipole Moment Calculation                       ... on
Quadrupole Moment Calculation                   ... off
Polarizability Calculation                      ... off
GBWName                                         ... PbMACl3_mp2_md2_17.orca.gbw
Electron density file                           ... PbMACl3_mp2_md2_17.orca.pmp2re

-------------
DIPOLE MOMENT
-------------
                                X             Y             Z
Electronic contribution:    -64.74982     -68.42664     -69.42751
Nuclear contribution   :     65.71056      69.58284      70.18034
                        -----------------------------------------
Total Dipole Moment    :      0.96074       1.15620       0.75283
                        -----------------------------------------
Magnitude (a.u.)       :      1.68124
Magnitude (Debye)      :      4.27337


Timings for individual modules:

Sum of individual times         ...      755.255 sec (=  12.588 min)
GTO integral calculation        ...        0.590 sec (=   0.010 min)   0.1 %
SCF iterations                  ...      290.776 sec (=   4.846 min)  38.5 %
MP2 module                      ...      463.890 sec (=   7.731 min)  61.4 %
                             ****ORCA TERMINATED NORMALLY****
TOTAL RUN TIME: 0 days 0 hours 12 minutes 35 seconds 747 msec
