
                                 *****************
                                 * O   R   C   A *
                                 *****************

           --- An Ab Initio, DFT and Semiempirical electronic structure package ---

                  #######################################################
                  #                        -***-                        #
                  #  Department of molecular theory and spectroscopy    #
                  #              Directorship: Frank Neese              #
                  # Max Planck Institute for Chemical Energy Conversion #
                  #                  D-45470 Muelheim/Ruhr              #
                  #                       Germany                       #
                  #                                                     #
                  #                  All rights reserved                #
                  #                        -***-                        #
                  #######################################################


                         Program Version 3.0.3 - RELEASE   -


 With contributions from (in alphabetic order):
   Ute Becker             : Parallelization
   Dmytro Bykov           : SCF Hessian
   Dmitry Ganyushin       : Spin-Orbit,Spin-Spin,Magnetic field MRCI
   Andreas Hansen         : Spin unrestricted coupled pair/coupled cluster methods
   Dimitrios Liakos       : Extrapolation schemes; parallel MDCI
   Robert Izsak           : Overlap fitted RIJCOSX, COSX-SCS-MP3
   Christian Kollmar      : KDIIS, OOCD, Brueckner-CCSD(T), CCSD density
   Simone Kossmann        : Meta GGA functionals, TD-DFT gradient, OOMP2, MP2 Hessian
   Taras Petrenko         : DFT Hessian,TD-DFT gradient, ASA and ECA modules, normal mode analysis, Resonance Raman, ABS, FL, XAS/XES, NRVS
   Christoph Reimann      : Effective Core Potentials
   Michael Roemelt        : Restricted open shell CIS
   Christoph Riplinger    : Improved optimizer, TS searches, QM/MM, DLPNO-CCSD
   Barbara Sandhoefer     : DKH picture change effects
   Igor Schapiro          : Molecular dynamics
   Kantharuban Sivalingam : CASSCF convergence, NEVPT2
   Boris Wezisla          : Elementary symmetry handling
   Frank Wennmohs         : Technical directorship


 We gratefully acknowledge several colleagues who have allowed us to
 interface, adapt or use parts of their codes:
   Stefan Grimme, W. Hujo, H. Kruse, T. Risthaus : VdW corrections, initial TS optimization,
                                                   DFT functionals, gCP
   Ed Valeev                                     : LibInt (2-el integral package), F12 methods
   Garnet Chan, S. Sharma, R. Olivares           : DMRG
   Ulf Ekstrom                                   : XCFun DFT Library
   Mihaly Kallay                                 : mrcc  (arbitrary order and MRCC methods)
   Andreas Klamt, Michael Diedenhofen            : otool_cosmo (COSMO solvation model)
   Frank Weinhold                                : gennbo (NPA and NBO analysis)
   Christopher J. Cramer and Donald G. Truhlar   : smd solvation model


 Your calculation uses the libint2 library for the computation of 2-el integrals
 For citations please refer to: http://libint.valeyev.net

 This ORCA versions uses:
   CBLAS   interface :  Fast vector & matrix operations
   LAPACKE interface :  Fast linear algebra routines
   SCALAPACK package :  Parallel linear algebra routines


Your calculation utilizes the basis: Ahlrichs-TZV
Cite in your paper:
H - Kr: A. Schaefer, H. Horn and R. Ahlrichs, J. Chem. Phys. 97, 2571 (1992).

The def2-TZV basis will be loaded
Cite in your paper:
 	F. Weigend, R. Ahlrichs, Phys. Chem. Chem. Phys. 2005, 7, 3297.

Your calculation utilizes the atom-pairwise dispersion correction
with the Becke-Johnson damping scheme (D3BJ)
Cite in your paper:
S.Grimme, S.Ehrlich, L.Goerigk, J Comput Chem, (2011), 32, 1456–1465 
S.Grimme, J.Antony, S.Ehrlich and H.Krieg, J.Chem.Phys., 132, (2010), 154104 
   

================================================================================
                                        WARNINGS
                       Please study these warnings very carefully!
================================================================================

WARNING: The RI method has been chosen with no auxiliary basis (AUX or GTOAUX in BASIS block)
        Standard TZV/J expansion basis used (GTOAUX=TZV_J)

Now building the actual basis set
cite the ECPs for Pb [SD(60,MDF)] as follows:
  B. Metz, H. Stoll, M. Dolg, J. Chem. Phys. 113, 2563 (2000).

ECP parameters for Pb [SD(60,MDF)] have been obtained from:
  pseudopotential library of the Stuttgart/Cologne group
  http://www.theochem.uni-stuttgart.de/pseudopotentials/

cite the ECP basis sets for Pb [DEF2-TZVP] as follows:
  F. Weigend, R. Ahlrichs; Phys. Chem. Chem. Phys. 7, 3297(2005).

ECP basis sets for Pb [DEF2-TZVP] have been obtained from:
  Turbomole basis set library
  ftp://ftp.chemie.uni-karlsruhe.de/pub/basen/



INFO   : the flag for use of LIBINT has been found!

================================================================================
                                       INPUT FILE
================================================================================
NAME = PbMACl3_mp2_md2_21.orca
|  1> ! RIJCOSX RI-B2PLYP D3BJ def2-TZVP ECP{def2-TZVP} TIGHTSCF Grid5 FinalGrid6 SlowConv MORead
|  2> %method
|  3>  RunTyp Gradient
|  4>  end
|  5> %maxcore 1000
|  6> %moinp "previous.gbw"
|  7> *xyz 0 1
|  8> C -0.394281 0.276013 -0.426662 
|  9> N -1.165380 -0.685592 -1.253010 
| 10> H 0.248796 -0.278576 0.260517 
| 11> H -1.090820 0.897444 0.140826 
| 12> H 0.215705 0.904875 -1.079130 
| 13> H -1.783150 -1.324970 -0.698370 
| 14> H -0.582260 -1.326300 -1.835140 
| 15> H -1.813140 -0.240924 -1.938260 
| 16> Pb -2.574730 -2.636580 -3.040170 
| 17> Cl -0.092175 -2.801970 -3.069280 
| 18> Cl -2.837580 -0.182389 -3.642490 
| 19> Cl -3.222740 -2.986060 -0.663169 
| 20> *
| 21> 
| 22>                          ****END OF INPUT****
================================================================================

                     *******************************
                     * Energy+Gradient Calculation *
                     *******************************

---------------------------------
CARTESIAN COORDINATES (ANGSTROEM)
---------------------------------
  C     -0.394281    0.276013   -0.426662
  N     -1.165380   -0.685592   -1.253010
  H      0.248796   -0.278576    0.260517
  H     -1.090820    0.897444    0.140826
  H      0.215705    0.904875   -1.079130
  H     -1.783150   -1.324970   -0.698370
  H     -0.582260   -1.326300   -1.835140
  H     -1.813140   -0.240924   -1.938260
  Pb    -2.574730   -2.636580   -3.040170
  Cl    -0.092175   -2.801970   -3.069280
  Cl    -2.837580   -0.182389   -3.642490
  Cl    -3.222740   -2.986060   -0.663169

----------------------------
CARTESIAN COORDINATES (A.U.)
----------------------------
  NO LB      ZA    FRAG    MASS        X           Y           Z
   0 C     6.0000    0    12.011         -0.745083109808605          0.521588979402006         -0.806274331751109
   1 N     7.0000    0    14.007         -2.202249041949148         -1.295581119607339         -2.367845743064668
   2 H     1.0000    0     1.008          0.470156303215072         -0.526432347483247          0.492305783230763
   3 H     1.0000    0     1.008         -2.061351061403979          1.695923380530824          0.266122572535594
   4 H     1.0000    0     1.008          0.407623375717484          1.709965935431992         -2.039260162898440
   5 H     1.0000    0     1.008         -3.369665155701680         -2.503830435661641         -1.319728040146585
   6 H     1.0000    0     1.008         -1.100311938736988         -2.506343771419756         -3.467912017404246
   7 H     1.0000    0     1.008         -3.426338042457978         -0.455280379088844         -3.662780576334205
   8 Pb   22.0000*   0   207.200  -4.865534568791064  -4.982414130174093  -5.745088700563372
   9 Cl   17.0000    0    35.453         -0.174185506394191         -5.294955935463329         -5.800098628321820
  10 Cl   17.0000    0    35.453         -5.362249083092265         -0.344665259839763         -6.883308545546820
  11 Cl   17.0000    0    35.453         -6.090096000833374         -5.642835619456893         -1.253207790506423
* core charge reduced due to ECP

--------------------------------
INTERNAL COORDINATES (ANGSTROEM)
--------------------------------
 C      0   0   0   0.000000     0.000     0.000
 N      1   0   0   1.483957     0.000     0.000
 H      1   2   0   1.092397   109.099     0.000
 H      1   2   3   1.092422   109.061   240.173
 H      1   2   3   1.092367   109.305   120.114
 H      2   1   3   1.047888   114.015    60.210
 H      2   1   3   1.043749   114.711   299.789
 H      2   1   3   1.042540   114.361   179.708
 Pb     7   2   1   2.671866    97.814   181.722
 Cl     7   2   1   1.985167   160.213   174.746
 Cl     8   2   1   1.989297   153.588   151.513
 Cl     6   2   1   2.198381   148.822   181.189

---------------------------
INTERNAL COORDINATES (A.U.)
---------------------------
 C      0   0   0   0.000000     0.000     0.000
 N      1   0   0   2.804273     0.000     0.000
 H      1   2   0   2.064332   109.099     0.000
 H      1   2   3   2.064378   109.061   240.173
 H      1   2   3   2.064274   109.305   120.114
 H      2   1   3   1.980222   114.015    60.210
 H      2   1   3   1.972399   114.711   299.789
 H      2   1   3   1.970116   114.361   179.708
 Pb     7   2   1   5.049095    97.814   181.722
 Cl     7   2   1   3.751421   160.213   174.746
 Cl     8   2   1   3.759227   153.588   151.513
 Cl     6   2   1   4.154338   148.822   181.189

---------------------
BASIS SET INFORMATION
---------------------
There are 5 groups of distinct atoms

 Group   1 Type C   : 11s6p2d1f contracted to 5s3p2d1f pattern {62111/411/11/1}
 Group   2 Type N   : 11s6p2d1f contracted to 5s3p2d1f pattern {62111/411/11/1}
 Group   3 Type H   : 5s1p contracted to 3s1p pattern {311/1}
 Group   4 Type Pb  : 10s9p8d2f contracted to 6s5p3d2f pattern {421111/33111/611/11}
 Group   5 Type Cl  : 14s9p3d1f contracted to 5s5p2d1f pattern {73211/51111/21/1}

Atom   0C    basis set group =>   1
Atom   1N    basis set group =>   2
Atom   2H    basis set group =>   3
Atom   3H    basis set group =>   3
Atom   4H    basis set group =>   3
Atom   5H    basis set group =>   3
Atom   6H    basis set group =>   3
Atom   7H    basis set group =>   3
Atom   8Pb   basis set group =>   4
Atom   9Cl   basis set group =>   5
Atom  10Cl   basis set group =>   5
Atom  11Cl   basis set group =>   5
-------------------------------
AUXILIARY BASIS SET INFORMATION
-------------------------------
There are 5 groups of distinct atoms

 Group   1 Type C   : 12s5p4d2f1g contracted to 6s4p3d1f1g pattern {711111/2111/211/2/1}
 Group   2 Type N   : 12s5p4d2f1g contracted to 6s4p3d1f1g pattern {711111/2111/211/2/1}
 Group   3 Type H   : 5s2p1d contracted to 3s1p1d pattern {311/2/1}
 Group   4 Type Pb  : 31s12p8d6f3g contracted to 31s12p8d6f3g pattern {1111111111111111111111111111111/111111111111/11111111/111111/111}
 Group   5 Type Cl  : 14s5p5d2f1g contracted to 8s4p3d1f1g pattern {71111111/2111/311/2/1}

Atom   0C    basis set group =>   1
Atom   1N    basis set group =>   2
Atom   2H    basis set group =>   3
Atom   3H    basis set group =>   3
Atom   4H    basis set group =>   3
Atom   5H    basis set group =>   3
Atom   6H    basis set group =>   3
Atom   7H    basis set group =>   3
Atom   8Pb   basis set group =>   4
Atom   9Cl   basis set group =>   5
Atom  10Cl   basis set group =>   5
Atom  11Cl   basis set group =>   5

-------------------------
ECP PARAMETER INFORMATION
-------------------------

 Group 1, Type Pb ECP SD(60,MDF) (replacing 60 core electrons, lmax=5)

Atom   8Pb   ECP group =>   1


------------------------------------------------------------------------------
                           ORCA GTO INTEGRAL CALCULATION
                           -- RI-GTO INTEGRALS CHOSEN --
------------------------------------------------------------------------------

                         BASIS SET STATISTICS AND STARTUP INFO

Gaussian basis set:
 # of primitive gaussian shells          ...  186
 # of primitive gaussian functions       ...  420
 # of contracted shells                  ...  101
 # of contracted basis functions         ...  259
 Highest angular momentum                ...    3
 Maximum contraction depth               ...    7
Auxiliary gaussian basis set:
 # of primitive gaussian shells          ...  237
 # of primitive gaussian functions       ...  643
 # of contracted shells                  ...  171
 # of contracted aux-basis functions     ...  493
 Highest angular momentum                ...    4
 Maximum contraction depth               ...    7
Ratio of auxiliary to basis functions    ...  1.90
Integral package used                  ... LIBINT
 One Electron integrals                  
   ECP integrals                         ... done
 Ordering auxiliary basis shells         ... done
 Integral threshhold             Thresh  ...  2.500e-11
 Primitive cut-off               TCut    ...  2.500e-12
 Pre-screening matrix                    ... done
 Shell pair data                         ... 
 Ordering of the shell pairs             ... done (   0.001 sec) 4484 of 5151 pairs
 Determination of significant pairs      ... done (   0.000 sec)
 Creation of shell pair data             ... done (   0.001 sec)
 Storage of shell pair data              ... done (   0.001 sec)
 Shell pair data done in (   0.003 sec)
 Computing two index integrals           ... done
 Cholesky decomposition of the V-matrix  ... done


Timings:
 Total evaluation time                   ...   0.888 sec (  0.015 min)
 One electron matrix time                ...   0.594 sec (  0.010 min) = 66.9%
 Schwartz matrix evaluation time         ...   0.212 sec (  0.004 min) = 23.8%
 Two index repulsion integral time       ...   0.021 sec (  0.000 min) =  2.4%
 Cholesky decomposition of V             ...   0.007 sec (  0.000 min) =  0.8%
 Three index repulsion integral time     ...   0.000 sec (  0.000 min) =  0.0%

-------------------------------------------------------------------------------
                                 ORCA SCF
-------------------------------------------------------------------------------

------------
SCF SETTINGS
------------
Hamiltonian:
 Density Functional     Method          .... DFT(GTOs)
 Exchange Functional    Exchange        .... B88
   X-Alpha parameter    XAlpha          ....  0.666667
   Becke's b parameter  XBeta           ....  0.004200
 Correlation Functional Correlation     .... LYP
 LDA part of GGA corr.  LDAOpt          .... VWN-3
 Gradients option       PostSCFGGA      .... off
 Hybrid DFT is turned on
   Fraction HF Exchange ScalHFX         ....  0.530000
   Scaling of DF-GGA-X  ScalDFX         ....  0.470000
   Scaling of DF-GGA-C  ScalDFC         ....  0.730000
   Scaling of DF-LDA-C  ScalLDAC        ....  0.730000
   Perturbative correction              ....  0.270000
 RI-approximation to the Coulomb term is turned on
   Number of auxiliary basis functions  .... 493
   RIJ-COSX (HFX calculated with COS-X)).... on


General Settings:
 Integral files         IntName         .... PbMACl3_mp2_md2_21.orca
 Hartree-Fock type      HFTyp           .... RHF
 Total Charge           Charge          ....    0
 Multiplicity           Mult            ....    1
 Number of Electrons    NEL             ....   92
 Basis Dimension        Dim             ....  259
 Nuclear Repulsion      ENuc            ....    611.9628878328 Eh

Convergence Acceleration:
 DIIS                   CNVDIIS         .... on
   Start iteration      DIISMaxIt       ....     0
   Startup error        DIISStart       ....  0.200000
   # of expansion vecs  DIISMaxEq       ....     5
   Bias factor          DIISBfac        ....   1.050
   Max. coefficient     DIISMaxC        ....  10.000
 Newton-Raphson         CNVNR           .... off
 SOSCF                  CNVSOSCF        .... on
   Start iteration      SOSCFMaxIt      ....   150
   Startup grad/error   SOSCFStart      ....  0.001000
 Level Shifting         CNVShift        .... on
   Level shift para.    LevelShift      ....    0.2500
   Turn off err/grad.   ShiftErr        ....    0.0000
 Zerner damping         CNVZerner       .... off
 Static damping         CNVDamp         .... on
   Fraction old density DampFac         ....    0.8500
   Max. Damping (<1)    DampMax         ....    0.9800
   Min. Damping (>=0)   DampMin         ....    0.0000
   Turn off err/grad.   DampErr         ....    0.0300
 Fernandez-Rico         CNVRico         .... off

SCF Procedure:
 Maximum # iterations   MaxIter         ....   125
 SCF integral mode      SCFMode         .... Direct
   Integral package                     .... LIBINT
 Reset frequeny         DirectResetFreq ....    20
 Integral Threshold     Thresh          ....  2.500e-11 Eh
 Primitive CutOff       TCut            ....  2.500e-12 Eh

Convergence Tolerance:
 Convergence Check Mode ConvCheckMode   .... Total+1el-Energy
 Energy Change          TolE            ....  1.000e-08 Eh
 1-El. energy change                    ....  1.000e-05 Eh
 Orbital Gradient       TolG            ....  1.000e-05
 Orbital Rotation angle TolX            ....  1.000e-05
 DIIS Error             TolErr          ....  5.000e-07


Diagonalization of the overlap matrix:
Smallest eigenvalue                        ... 1.054e-03
Time for diagonalization                   ...    0.017 sec
Threshold for overlap eigenvalues          ... 1.000e-08
Number of eigenvalues below threshold      ... 0
Time for construction of square roots      ...    0.007 sec
Total time needed                          ...    0.024 sec

---------------------
INITIAL GUESS: MOREAD
---------------------
Guess MOs are being read from file: previous.gbw
Input geometry compatible with but different from current geometry
Input basis set matches current basis set (good)
MOs were renormalized
MOs were reorthogonalized (Schmidt)
                      ------------------
                      INITIAL GUESS DONE (   0.1 sec)
                      ------------------
-------------------
DFT GRID GENERATION
-------------------

General Integration Accuracy     IntAcc      ...  5.010
Radial Grid Type                 RadialGrid  ... Gauss-Chebyshev
Angular Grid (max. acc.)         AngularGrid ... Lebedev-434
Angular grid pruning method      GridPruning ... 3 (G Style)
Weight generation scheme         WeightScheme... Becke
Basis function cutoff            BFCut       ...    1.0000e-11
Integration weight cutoff        WCut        ...    1.0000e-14
Grids for H and He will be reduced by one unit

# of grid points (after initial pruning)     ... 115882 (   0.0 sec)
# of grid points (after weights+screening)   ... 108495 (   0.5 sec)
nearest neighbour list constructed           ...    0.0 sec
Grid point re-assignment to atoms done       ...    0.0 sec
Grid point division into batches done        ...    1.0 sec
Reduced shell lists constructed in    2.5 sec

Total number of grid points                  ...   108495
Total number of batches                      ...     1701
Average number of points per batch           ...       63
Average number of grid points per atom       ...     9041
Average number of shells per batch           ...    56.13 (55.58%)
Average number of basis functions per batch  ...   148.69 (57.41%)
Average number of large shells per batch     ...    42.64 (75.95%)
Average number of large basis fcns per batch ...   109.92 (73.92%)
Maximum spatial batch extension              ...  32.97, 33.86, 35.89 au
Average spatial batch extension              ...   2.43,  2.40,  2.38 au

Time for grid setup =    3.033 sec

--------------------
COSX GRID GENERATION
--------------------

General Integration Accuracy     IntAcc      ...  3.340
Radial Grid Type                 RadialGrid  ... Gauss-Chebyshev
Angular Grid (max. acc.)         AngularGrid ... Lebedev-50
Angular grid pruning method      GridPruning ... 3 (G Style)
Weight generation scheme         WeightScheme... Becke
Basis function cutoff            BFCut       ...    1.0000e-11
Integration weight cutoff        WCut        ...    1.0000e-14
Grids for H and He will be reduced by one unit

# of grid points (after initial pruning)     ...   6578 (   0.0 sec)
# of grid points (after weights+screening)   ...   6175 (   0.0 sec)
nearest neighbour list constructed           ...    0.0 sec
Grid point re-assignment to atoms done       ...    0.0 sec
Grid point division into batches done        ...    0.0 sec
Reduced shell lists constructed in    0.1 sec

Total number of grid points                  ...     6175
Total number of batches                      ...      103
Average number of points per batch           ...       59
Average number of grid points per atom       ...      515
Average number of shells per batch           ...    67.76 (67.09%)
Average number of basis functions per batch  ...   182.22 (70.36%)
Average number of large shells per batch     ...    53.46 (78.90%)
Average number of large basis fcns per batch ...   140.46 (77.08%)
Maximum spatial batch extension              ...  30.06, 30.95, 30.15 au
Average spatial batch extension              ...   6.14,  6.14,  6.07 au

Overlap Fitting                  UseSFitting ... on
Constructing numerical overlap ... done (      0.1 sec)
Inverting numerical overlap    ... done (      0.0 sec)
Obtaining analytic overlap     ... done (      0.0 sec)
Final contraction and storage  ... done (      0.0 sec)


General Integration Accuracy     IntAcc      ...  3.670
Radial Grid Type                 RadialGrid  ... Gauss-Chebyshev
Angular Grid (max. acc.)         AngularGrid ... Lebedev-50
Angular grid pruning method      GridPruning ... 3 (G Style)
Weight generation scheme         WeightScheme... Becke
Basis function cutoff            BFCut       ...    1.0000e-11
Integration weight cutoff        WCut        ...    1.0000e-14
Grids for H and He will be reduced by one unit

# of grid points (after initial pruning)     ...   8124 (   0.0 sec)
# of grid points (after weights+screening)   ...   7608 (   0.0 sec)
nearest neighbour list constructed           ...    0.0 sec
Grid point re-assignment to atoms done       ...    0.0 sec
Grid point division into batches done        ...    0.0 sec
Reduced shell lists constructed in    0.1 sec

Total number of grid points                  ...     7608
Total number of batches                      ...      123
Average number of points per batch           ...       61
Average number of grid points per atom       ...      634
Average number of shells per batch           ...    67.02 (66.35%)
Average number of basis functions per batch  ...   180.11 (69.54%)
Average number of large shells per batch     ...    52.51 (78.35%)
Average number of large basis fcns per batch ...   137.30 (76.23%)
Maximum spatial batch extension              ...  30.65, 32.22, 30.86 au
Average spatial batch extension              ...   6.03,  5.98,  5.83 au

Overlap Fitting                  UseSFitting ... on
Constructing numerical overlap ... done (      0.1 sec)
Inverting numerical overlap    ... done (      0.0 sec)
Obtaining analytic overlap     ... done (      0.0 sec)
Final contraction and storage  ... done (      0.0 sec)


General Integration Accuracy     IntAcc      ...  4.010
Radial Grid Type                 RadialGrid  ... Gauss-Chebyshev
Angular Grid (max. acc.)         AngularGrid ... Lebedev-110
Angular grid pruning method      GridPruning ... 3 (G Style)
Weight generation scheme         WeightScheme... Becke
Basis function cutoff            BFCut       ...    1.0000e-11
Integration weight cutoff        WCut        ...    1.0000e-14
Grids for H and He will be reduced by one unit

# of grid points (after initial pruning)     ...  15170 (   0.0 sec)
# of grid points (after weights+screening)   ...  14346 (   0.0 sec)
nearest neighbour list constructed           ...    0.0 sec
Grid point re-assignment to atoms done       ...    0.0 sec
Grid point division into batches done        ...    0.0 sec
Reduced shell lists constructed in    0.2 sec

Total number of grid points                  ...    14346
Total number of batches                      ...      228
Average number of points per batch           ...       62
Average number of grid points per atom       ...     1196
Average number of shells per batch           ...    63.41 (62.78%)
Average number of basis functions per batch  ...   169.92 (65.61%)
Average number of large shells per batch     ...    49.13 (77.48%)
Average number of large basis fcns per batch ...   128.21 (75.45%)
Maximum spatial batch extension              ...  34.29, 34.29, 30.75 au
Average spatial batch extension              ...   4.98,  5.01,  4.92 au

Overlap Fitting                  UseSFitting ... on
Constructing numerical overlap ... done (      0.2 sec)
Inverting numerical overlap    ... done (      0.0 sec)
Obtaining analytic overlap     ... done (      0.0 sec)
Final contraction and storage  ... done (      0.0 sec)

Time for X-Grid setup             =    1.005 sec
--------------
SCF ITERATIONS
--------------
ITER       Energy         Delta-E        Max-DP      RMS-DP      [F,P]     Damp
               ***  Starting incremental Fock matrix formation  ***
  0  -1668.9831343909   0.000000000000 0.00628526  0.00016352  0.3306409 0.8500
  1  -1668.9878894011  -0.004755010228 0.00809108  0.00018253  0.2813150 0.8500
                               ***Turning on DIIS***
  2  -1668.9920154072  -0.004126006063 0.00829960  0.00016970  0.2392066 0.8500
  3  -1668.9954772070  -0.003461799826 0.00874808  0.00015655  0.2033989 0.8500
  4  -1668.9984342994  -0.002957092374 0.00883623  0.00014709  0.1729319 0.8500
  5  -1669.0009577534  -0.002523453971 0.00832885  0.00013401  0.1470097 0.8500
  6  -1669.0031500771  -0.002192323703 0.00725259  0.00011907  0.1249651 0.8500
  7  -1669.0050631075  -0.001913030447 0.00618599  0.00010411  0.1062232 0.8500
  8  -1669.0067320813  -0.001668973762 0.00536040  0.00009063  0.0902921 0.8500
  9  -1669.0081774208  -0.001445339522 0.00466326  0.00007861  0.0767505 0.8500
 10  -1669.0094255068  -0.001248086030 0.00403771  0.00006791  0.0652400 0.8500
 11  -1669.0105023696  -0.001076862750 0.00347196  0.00005847  0.0554559 0.8500
 12  -1669.0114306754  -0.000928305793 0.00297177  0.00005022  0.0471391 0.8500
 13  -1669.0122297516  -0.000799076237 0.00254259  0.00004309  0.0400696 0.8500
 14  -1669.0129163353  -0.000686583713 0.00217813  0.00003695  0.0340604 0.8500
 15  -1669.0135053648  -0.000589029487 0.01244488  0.00021117  0.0289524 0.0000
                      *** Initiating the SOSCF procedure ***
                           *** Shutting down DIIS ***
                      *** Re-Reading the Fockian *** 
                      *** Removing any level shift *** 
ITER      Energy       Delta-E        Grad      Rot      Max-DP    RMS-DP
 16  -1669.01694626  -0.0034408990  0.000116  0.000116  0.000366  0.000005
               *** Restarting incremental Fock matrix formation ***
 17  -1669.01694013   0.0000061302  0.000070  0.000187  0.000183  0.000004
 18  -1669.01694036  -0.0000002260  0.000026  0.000111  0.000128  0.000003
 19  -1669.01694043  -0.0000000691  0.000024  0.000028  0.000079  0.000001
                  ***Gradient check signals convergence***
              ***Rediagonalizing the Fockian in SOSCF/NRSCF***

               *****************************************************
               *                     SUCCESS                       *
               *           SCF CONVERGED AFTER  20 CYCLES          *
               *****************************************************

Old exchange energy                            =    -59.230289484 Eh
New exchange energy                            =    -59.233783515 Eh
Exchange energy change after final integration =     -0.003494030 Eh
Total energy after final integration           =  -1669.020434468 Eh
Final COS-X integration done in                =    26.145 sec

----------------
TOTAL SCF ENERGY
----------------

Total Energy       :        -1669.02043447 Eh          -45416.35494 eV

Components:
Nuclear Repulsion  :          611.96288783 Eh           16652.35677 eV
Electronic Energy  :        -2280.98332230 Eh          -62068.71171 eV

One Electron Energy:        -3594.00513689 Eh          -97797.85172 eV
Two Electron Energy:         1313.02181459 Eh           35729.14001 eV

Virial components:
Potential Energy   :        -3206.97220874 Eh          -87266.15033 eV
Kinetic Energy     :         1537.95177427 Eh           41849.79538 eV
Virial Ratio       :            2.08522287


DFT components:
N(Alpha)           :       46.000017724107 electrons
N(Beta)            :       46.000017724107 electrons
N(Total)           :       92.000035448213 electrons
E(X)               :      -52.601956091543 Eh       
E(C)               :       -2.613155458597 Eh       
E(XC)              :      -55.215111550140 Eh       

---------------
SCF CONVERGENCE
---------------

  Last Energy change         ...   -8.5479e-09  Tolerance :   1.0000e-08
  Last MAX-Density change    ...    5.5067e-14  Tolerance :   1.0000e-07
  Last RMS-Density change    ...    4.5668e-16  Tolerance :   5.0000e-09
  Last Orbital Gradient      ...    9.5901e-07  Tolerance :   1.0000e-05
  Last Orbital Rotation      ...    1.5865e-06  Tolerance :   1.0000e-05

             **** THE GBW FILE WAS UPDATED (PbMACl3_mp2_md2_21.orca.gbw) ****
             **** DENSITY FILE WAS UPDATED (PbMACl3_mp2_md2_21.orca.scfp.tmp) ****
             **** ENERGY FILE WAS UPDATED (PbMACl3_mp2_md2_21.orca.en.tmp) ****
----------------
ORBITAL ENERGIES
----------------

  NO   OCC          E(Eh)            E(eV) 
   0   2.0000    -102.868285     -2799.1883 
   1   2.0000    -102.864638     -2799.0891 
   2   2.0000    -102.862409     -2799.0284 
   3   2.0000     -14.956683      -406.9920 
   4   2.0000     -10.709522      -291.4209 
   5   2.0000      -9.876810      -268.7617 
   6   2.0000      -9.872667      -268.6489 
   7   2.0000      -9.870655      -268.5942 
   8   2.0000      -7.513755      -204.4597 
   9   2.0000      -7.512243      -204.4185 
  10   2.0000      -7.511647      -204.4023 
  11   2.0000      -7.509654      -204.3481 
  12   2.0000      -7.507977      -204.3024 
  13   2.0000      -7.507645      -204.2934 
  14   2.0000      -7.507542      -204.2906 
  15   2.0000      -7.506111      -204.2517 
  16   2.0000      -7.505581      -204.2372 
  17   2.0000      -5.799350      -157.8083 
  18   2.0000      -3.571362       -97.1817 
  19   2.0000      -3.569706       -97.1367 
  20   2.0000      -3.569025       -97.1181 
  21   2.0000      -1.143905       -31.1272 
  22   2.0000      -0.977695       -26.6044 
  23   2.0000      -0.974941       -26.5295 
  24   2.0000      -0.964013       -26.2321 
  25   2.0000      -0.960034       -26.1239 
  26   2.0000      -0.958799       -26.0902 
  27   2.0000      -0.908209       -24.7136 
  28   2.0000      -0.878641       -23.9090 
  29   2.0000      -0.876896       -23.8616 
  30   2.0000      -0.857788       -23.3416 
  31   2.0000      -0.670705       -18.2508 
  32   2.0000      -0.669333       -18.2135 
  33   2.0000      -0.609278       -16.5793 
  34   2.0000      -0.560335       -15.2475 
  35   2.0000      -0.522614       -14.2210 
  36   2.0000      -0.521618       -14.1940 
  37   2.0000      -0.404010       -10.9937 
  38   2.0000      -0.400648       -10.9022 
  39   2.0000      -0.382874       -10.4185 
  40   2.0000      -0.366532        -9.9738 
  41   2.0000      -0.364779        -9.9262 
  42   2.0000      -0.360874        -9.8199 
  43   2.0000      -0.358824        -9.7641 
  44   2.0000      -0.353439        -9.6176 
  45   2.0000      -0.288891        -7.8611 
  46   0.0000      -0.009938        -0.2704 
  47   0.0000       0.027168         0.7393 
  48   0.0000       0.039052         1.0627 
  49   0.0000       0.041855         1.1389 
  50   0.0000       0.089673         2.4401 
  51   0.0000       0.110950         3.0191 
  52   0.0000       0.113517         3.0890 
  53   0.0000       0.115246         3.1360 
  54   0.0000       0.138374         3.7654 
  55   0.0000       0.142022         3.8646 
  56   0.0000       0.157627         4.2892 
  57   0.0000       0.161448         4.3932 
  58   0.0000       0.181244         4.9319 
  59   0.0000       0.234576         6.3831 
  60   0.0000       0.241561         6.5732 
  61   0.0000       0.248464         6.7611 
  62   0.0000       0.258579         7.0363 
  63   0.0000       0.266572         7.2538 
  64   0.0000       0.277683         7.5561 
  65   0.0000       0.281107         7.6493 
  66   0.0000       0.284863         7.7515 
  67   0.0000       0.320050         8.7090 
  68   0.0000       0.326906         8.8956 
  69   0.0000       0.354316         9.6414 
  70   0.0000       0.388995        10.5851 
  71   0.0000       0.400634        10.9018 
  72   0.0000       0.416214        11.3258 
  73   0.0000       0.423122        11.5137 
  74   0.0000       0.428304        11.6548 
  75   0.0000       0.430308        11.7093 
  76   0.0000       0.434610        11.8263 
  77   0.0000       0.440512        11.9870 
  78   0.0000       0.448527        12.2050 
  79   0.0000       0.452272        12.3070 
  80   0.0000       0.486654        13.2425 
  81   0.0000       0.490855        13.3568 
  82   0.0000       0.497244        13.5307 
  83   0.0000       0.520942        14.1755 
  84   0.0000       0.526892        14.3374 
  85   0.0000       0.530054        14.4235 
  86   0.0000       0.536769        14.6062 
  87   0.0000       0.538107        14.6426 
  88   0.0000       0.556723        15.1492 
  89   0.0000       0.559940        15.2367 
  90   0.0000       0.575357        15.6563 
  91   0.0000       0.585009        15.9189 
  92   0.0000       0.588325        16.0091 
  93   0.0000       0.622466        16.9382 
  94   0.0000       0.633812        17.2469 
  95   0.0000       0.642358        17.4795 
  96   0.0000       0.650455        17.6998 
  97   0.0000       0.673397        18.3241 
  98   0.0000       0.682593        18.5743 
  99   0.0000       0.707548        19.2534 
 100   0.0000       0.710076        19.3222 
 101   0.0000       0.725095        19.7308 
 102   0.0000       0.753713        20.5096 
 103   0.0000       0.783978        21.3331 
 104   0.0000       0.795449        21.6453 
 105   0.0000       0.852177        23.1889 
 106   0.0000       0.870667        23.6920 
 107   0.0000       0.883804        24.0495 
 108   0.0000       0.887975        24.1630 
 109   0.0000       0.896632        24.3986 
 110   0.0000       0.905800        24.6481 
 111   0.0000       0.916445        24.9377 
 112   0.0000       0.920633        25.0517 
 113   0.0000       0.947297        25.7773 
 114   0.0000       0.973714        26.4961 
 115   0.0000       0.981675        26.7127 
 116   0.0000       1.053282        28.6613 
 117   0.0000       1.065266        28.9874 
 118   0.0000       1.070854        29.1394 
 119   0.0000       1.082843        29.4657 
 120   0.0000       1.095642        29.8139 
 121   0.0000       1.104282        30.0490 
 122   0.0000       1.141821        31.0705 
 123   0.0000       1.230258        33.4770 
 124   0.0000       1.237018        33.6610 
 125   0.0000       1.301163        35.4065 
 126   0.0000       1.304645        35.5012 
 127   0.0000       1.327147        36.1135 
 128   0.0000       1.389940        37.8222 
 129   0.0000       1.428976        38.8844 
 130   0.0000       1.488171        40.4952 
 131   0.0000       1.565703        42.6049 
 132   0.0000       1.574820        42.8530 
 133   0.0000       1.590999        43.2933 
 134   0.0000       1.602632        43.6098 
 135   0.0000       1.614259        43.9262 
 136   0.0000       1.753009        47.7018 
 137   0.0000       1.782731        48.5106 
 138   0.0000       1.790409        48.7195 
 139   0.0000       1.887076        51.3500 
 140   0.0000       1.894144        51.5423 
 141   0.0000       1.902857        51.7794 
 142   0.0000       1.915882        52.1338 
 143   0.0000       1.916812        52.1591 
 144   0.0000       1.932709        52.5917 
 145   0.0000       1.955189        53.2034 
 146   0.0000       1.959126        53.3105 
 147   0.0000       1.965170        53.4750 
 148   0.0000       1.975327        53.7514 
 149   0.0000       2.005940        54.5844 
 150   0.0000       2.026254        55.1372 
 151   0.0000       2.026609        55.1468 
 152   0.0000       2.030671        55.2574 
 153   0.0000       2.037886        55.4537 
 154   0.0000       2.095465        57.0205 
 155   0.0000       2.105325        57.2888 
 156   0.0000       2.109075        57.3908 
 157   0.0000       2.112877        57.4943 
 158   0.0000       2.116472        57.5921 
 159   0.0000       2.120505        57.7019 
 160   0.0000       2.140339        58.2416 
 161   0.0000       2.148348        58.4595 
 162   0.0000       2.152641        58.5763 
 163   0.0000       2.168058        58.9959 
 164   0.0000       2.180302        59.3290 
 165   0.0000       2.186581        59.4999 
 166   0.0000       2.196477        59.7692 
 167   0.0000       2.197953        59.8093 
 168   0.0000       2.221309        60.4449 
 169   0.0000       2.227211        60.6055 
 170   0.0000       2.236466        60.8573 
 171   0.0000       2.239445        60.9384 
 172   0.0000       2.247172        61.1486 
 173   0.0000       2.255864        61.3852 
 174   0.0000       2.263099        61.5820 
 175   0.0000       2.277108        61.9633 
 176   0.0000       2.285413        62.1892 
 177   0.0000       2.318452        63.0883 
 178   0.0000       2.324061        63.2409 
 179   0.0000       2.337386        63.6035 
 180   0.0000       2.357958        64.1633 
 181   0.0000       2.373441        64.5846 
 182   0.0000       2.386291        64.9343 
 183   0.0000       2.388136        64.9845 
 184   0.0000       2.397007        65.2259 
 185   0.0000       2.404378        65.4264 
 186   0.0000       2.420048        65.8528 
 187   0.0000       2.422460        65.9185 
 188   0.0000       2.436156        66.2912 
 189   0.0000       2.438942        66.3670 
 190   0.0000       2.459143        66.9167 
 191   0.0000       2.469707        67.2041 
 192   0.0000       2.473147        67.2978 
 193   0.0000       2.493470        67.8508 
 194   0.0000       2.514687        68.4281 
 195   0.0000       2.523259        68.6614 
 196   0.0000       2.567753        69.8721 
 197   0.0000       2.580828        70.2279 
 198   0.0000       2.609414        71.0058 
 199   0.0000       2.618602        71.2558 
 200   0.0000       2.630379        71.5762 
 201   0.0000       2.639494        71.8243 
 202   0.0000       2.667881        72.5967 
 203   0.0000       2.779960        75.6466 
 204   0.0000       2.791504        75.9607 
 205   0.0000       2.811135        76.4949 
 206   0.0000       2.812994        76.5455 
 207   0.0000       2.864517        77.9475 
 208   0.0000       2.870417        78.1080 
 209   0.0000       2.936348        79.9021 
 210   0.0000       2.956032        80.4377 
 211   0.0000       3.095140        84.2230 
 212   0.0000       3.140202        85.4492 
 213   0.0000       3.145341        85.5891 
 214   0.0000       3.222780        87.6963 
 215   0.0000       3.247951        88.3812 
 216   0.0000       3.316225        90.2391 
 217   0.0000       3.396850        92.4330 
 218   0.0000       3.420407        93.0740 
 219   0.0000       3.557627        96.8079 
 220   0.0000       3.585787        97.5742 
 221   0.0000       3.595253        97.8318 
 222   0.0000       3.781677       102.9047 
 223   0.0000       3.784936       102.9933 
 224   0.0000       3.928384       106.8968 
 225   0.0000       4.201013       114.3154 
 226   0.0000       4.215998       114.7231 
 227   0.0000       4.420192       120.2795 
 228   0.0000       4.451482       121.1310 
 229   0.0000       4.858169       132.1975 
 230   0.0000       4.858468       132.2056 
 231   0.0000       4.961235       135.0021 
 232   0.0000       4.979309       135.4939 
 233   0.0000       5.115805       139.2081 
 234   0.0000       5.138727       139.8319 
 235   0.0000       5.155467       140.2874 
 236   0.0000       5.336066       145.2017 
 237   0.0000       5.527455       150.4097 
 238   0.0000       5.540554       150.7661 
 239   0.0000       5.861765       159.5067 
 240   0.0000      11.036323       300.3136 
 241   0.0000      11.044934       300.5479 
 242   0.0000      11.053929       300.7927 
 243   0.0000      11.091204       301.8070 
 244   0.0000      11.107927       302.2621 
 245   0.0000      11.113143       302.4040 
 246   0.0000      11.174316       304.0686 
 247   0.0000      11.204515       304.8903 
 248   0.0000      11.217243       305.2367 
 249   0.0000      22.675377       617.0284 
 250   0.0000      25.331540       689.3063 
 251   0.0000      25.370419       690.3642 
 252   0.0000      25.561398       695.5610 
 253   0.0000      32.437143       882.6595 
 254   0.0000      35.566536       967.8146 
 255   0.0000      35.810588       974.4556 
 256   0.0000      35.835645       975.1375 
 257   0.0000      35.925353       977.5786 
 258   0.0000     123.630273      3364.1508 

                    ********************************
                    * MULLIKEN POPULATION ANALYSIS *
                    ********************************

-----------------------
MULLIKEN ATOMIC CHARGES
-----------------------
   0 C :   -0.261733
   1 N :   -0.330701
   2 H :    0.158618
   3 H :    0.157932
   4 H :    0.161151
   5 H :    0.289880
   6 H :    0.298361
   7 H :    0.296740
   8 Pb:    0.776429
   9 Cl:   -0.506126
  10 Cl:   -0.524389
  11 Cl:   -0.516161
Sum of atomic charges:    0.0000000

--------------------------------
MULLIKEN REDUCED ORBITAL CHARGES
--------------------------------
  0 C s       :     3.281315  s :     3.281315
      pz      :     0.978285  p :     2.905306
      px      :     0.991501
      py      :     0.935521
      dz2     :     0.006980  d :     0.068947
      dxz     :     0.018298
      dyz     :     0.017941
      dx2y2   :     0.007531
      dxy     :     0.018197
      f0      :     0.000361  f :     0.006165
      f+1     :     0.000508
      f-1     :     0.000744
      f+2     :     0.000769
      f-2     :     0.002645
      f+3     :     0.000517
      f-3     :     0.000621
  1 N s       :     3.429515  s :     3.429515
      pz      :     1.283917  p :     3.852751
      px      :     1.293230
      py      :     1.275605
      dz2     :     0.005404  d :     0.046301
      dxz     :     0.012296
      dyz     :     0.011271
      dx2y2   :     0.005876
      dxy     :     0.011454
      f0      :     0.000113  f :     0.002134
      f+1     :     0.000156
      f-1     :     0.000194
      f+2     :     0.000215
      f-2     :     0.001129
      f+3     :     0.000159
      f-3     :     0.000169
  2 H s       :     0.819634  s :     0.819634
      pz      :     0.008280  p :     0.021748
      px      :     0.007799
      py      :     0.005669
  3 H s       :     0.820346  s :     0.820346
      pz      :     0.006918  p :     0.021723
      px      :     0.007309
      py      :     0.007495
  4 H s       :     0.817051  s :     0.817051
      pz      :     0.006812  p :     0.021798
      px      :     0.007417
      py      :     0.007569
  5 H s       :     0.669803  s :     0.669803
      pz      :     0.009770  p :     0.040317
      px      :     0.014813
      py      :     0.015734
  6 H s       :     0.655025  s :     0.655025
      pz      :     0.016003  p :     0.046615
      px      :     0.011938
      py      :     0.018674
  7 H s       :     0.656767  s :     0.656767
      pz      :     0.021314  p :     0.046492
      px      :     0.016437
      py      :     0.008741
  8 Pbs       :     3.927937  s :     3.927937
      pz      :     2.364337  p :     7.064857
      px      :     2.349277
      py      :     2.351242
      dz2     :     2.030282  d :    10.157449
      dxz     :     2.033391
      dyz     :     2.032555
      dx2y2   :     2.030957
      dxy     :     2.030264
      f0      :     0.014912  f :     0.073329
      f+1     :     0.011581
      f-1     :     0.010254
      f+2     :     0.008749
      f-2     :     0.002881
      f+3     :     0.012214
      f-3     :     0.012738
  9 Cls       :     5.952628  s :     5.952628
      pz      :     3.913828  p :    11.528720
      px      :     3.715212
      py      :     3.899680
      dz2     :     0.003284  d :     0.023693
      dxz     :     0.003975
      dyz     :     0.002736
      dx2y2   :     0.009554
      dxy     :     0.004144
      f0      :     0.000104  f :     0.001084
      f+1     :     0.000207
      f-1     :     0.000057
      f+2     :     0.000151
      f-2     :     0.000072
      f+3     :     0.000334
      f-3     :     0.000159
 10 Cls       :     5.953827  s :     5.953827
      pz      :     3.877127  p :    11.547851
      px      :     3.930829
      py      :     3.739896
      dz2     :     0.004466  d :     0.021779
      dxz     :     0.003038
      dyz     :     0.004210
      dx2y2   :     0.007396
      dxy     :     0.002669
      f0      :     0.000072  f :     0.000932
      f+1     :     0.000141
      f-1     :     0.000128
      f+2     :     0.000178
      f-2     :     0.000053
      f+3     :     0.000127
      f-3     :     0.000234
 11 Cls       :     5.952678  s :     5.952678
      pz      :     3.741639  p :    11.541017
      px      :     3.899589
      py      :     3.899789
      dz2     :     0.010224  d :     0.021503
      dxz     :     0.004477
      dyz     :     0.003475
      dx2y2   :     0.000946
      dxy     :     0.002380
      f0      :     0.000356  f :     0.000965
      f+1     :     0.000258
      f-1     :     0.000165
      f+2     :     0.000050
      f-2     :     0.000066
      f+3     :     0.000041
      f-3     :     0.000029


                     *******************************
                     * LOEWDIN POPULATION ANALYSIS *
                     *******************************

----------------------
LOEWDIN ATOMIC CHARGES
----------------------
   0 C :   -0.274079
   1 N :    0.066862
   2 H :    0.125481
   3 H :    0.125201
   4 H :    0.126837
   5 H :    0.170801
   6 H :    0.143322
   7 H :    0.144164
   8 Pb:   -0.106428
   9 Cl:   -0.152870
  10 Cl:   -0.191446
  11 Cl:   -0.177844

-------------------------------
LOEWDIN REDUCED ORBITAL CHARGES
-------------------------------
  0 C s       :     2.853024  s :     2.853024
      pz      :     1.032011  p :     3.079995
      px      :     1.042439
      py      :     1.005546
      dz2     :     0.029044  d :     0.303942
      dxz     :     0.079307
      dyz     :     0.081856
      dx2y2   :     0.032941
      dxy     :     0.080793
      f0      :     0.005252  f :     0.037119
      f+1     :     0.003944
      f-1     :     0.005765
      f+2     :     0.004395
      f-2     :     0.007010
      f+3     :     0.004925
      f-3     :     0.005827
  1 N s       :     3.000953  s :     3.000953
      pz      :     1.255927  p :     3.763404
      px      :     1.255404
      py      :     1.252074
      dz2     :     0.017301  d :     0.159275
      dxz     :     0.041836
      dyz     :     0.040466
      dx2y2   :     0.018911
      dxy     :     0.040761
      f0      :     0.001458  f :     0.009507
      f+1     :     0.001126
      f-1     :     0.001406
      f+2     :     0.001027
      f-2     :     0.001762
      f+3     :     0.001230
      f-3     :     0.001498
  2 H s       :     0.812277  s :     0.812277
      pz      :     0.022827  p :     0.062242
      px      :     0.021719
      py      :     0.017696
  3 H s       :     0.812619  s :     0.812619
      pz      :     0.019396  p :     0.062180
      px      :     0.022226
      py      :     0.020557
  4 H s       :     0.810822  s :     0.810822
      pz      :     0.020837  p :     0.062341
      px      :     0.020744
      py      :     0.020759
  5 H s       :     0.708339  s :     0.708339
      pz      :     0.032531  p :     0.120861
      px      :     0.043002
      py      :     0.045328
  6 H s       :     0.711473  s :     0.711473
      pz      :     0.048649  p :     0.145205
      px      :     0.039978
      py      :     0.056577
  7 H s       :     0.710969  s :     0.710969
      pz      :     0.065152  p :     0.144867
      px      :     0.050698
      py      :     0.029017
  8 Pbs       :     3.688201  s :     3.688201
      pz      :     2.524966  p :     7.531614
      px      :     2.511372
      py      :     2.495277
      dz2     :     2.158431  d :    10.664706
      dxz     :     2.117023
      dyz     :     2.116926
      dx2y2   :     2.173217
      dxy     :     2.099108
      f0      :     0.045085  f :     0.221907
      f+1     :     0.039591
      f-1     :     0.028388
      f+2     :     0.023711
      f-2     :     0.008565
      f+3     :     0.039866
      f-3     :     0.036701
  9 Cls       :     5.724288  s :     5.724288
      pz      :     3.851815  p :    11.381656
      px      :     3.693214
      py      :     3.836626
      dz2     :     0.007617  d :     0.044268
      dxz     :     0.004087
      dyz     :     0.004840
      dx2y2   :     0.023551
      dxy     :     0.004172
      f0      :     0.000140  f :     0.002658
      f+1     :     0.000651
      f-1     :     0.000115
      f+2     :     0.000302
      f-2     :     0.000124
      f+3     :     0.001096
      f-3     :     0.000231
 10 Cls       :     5.742059  s :     5.742059
      pz      :     3.815316  p :    11.406887
      px      :     3.872695
      py      :     3.718876
      dz2     :     0.008889  d :     0.040233
      dxz     :     0.004761
      dyz     :     0.005303
      dx2y2   :     0.018615
      dxy     :     0.002665
      f0      :     0.000188  f :     0.002267
      f+1     :     0.000343
      f-1     :     0.000376
      f+2     :     0.000376
      f-2     :     0.000055
      f+3     :     0.000173
      f-3     :     0.000756
 11 Cls       :     5.734146  s :     5.734146
      pz      :     3.719060  p :    11.400759
      px      :     3.841768
      py      :     3.839930
      dz2     :     0.026599  d :     0.040593
      dxz     :     0.006382
      dyz     :     0.003645
      dx2y2   :     0.000823
      dxy     :     0.003145
      f0      :     0.001206  f :     0.002345
      f+1     :     0.000604
      f-1     :     0.000279
      f+2     :     0.000054
      f-2     :     0.000076
      f+3     :     0.000082
      f-3     :     0.000045


                      *****************************
                      * MAYER POPULATION ANALYSIS *
                      *****************************

  NA   - Mulliken gross atomic population
  ZA   - Total nuclear charge
  QA   - Mulliken gross atomic charge
  VA   - Mayer's total valence
  BVA  - Mayer's bonded valence
  FA   - Mayer's free valence

  ATOM       NA         ZA         QA         VA         BVA        FA
  0 C      6.2617     6.0000    -0.2617     3.8419     3.8419    -0.0000
  1 N      7.3307     7.0000    -0.3307     3.2774     3.2774     0.0000
  2 H      0.8414     1.0000     0.1586     0.9626     0.9626    -0.0000
  3 H      0.8421     1.0000     0.1579     0.9617     0.9617     0.0000
  4 H      0.8388     1.0000     0.1612     0.9637     0.9637    -0.0000
  5 H      0.7101     1.0000     0.2899     0.9626     0.9626    -0.0000
  6 H      0.7016     1.0000     0.2984     0.9643     0.9643    -0.0000
  7 H      0.7033     1.0000     0.2967     0.9692     0.9692     0.0000
  8 Pb    21.2236    22.0000     0.7764     2.0085     2.0085    -0.0000
  9 Cl    17.5061    17.0000    -0.5061     0.8425     0.8425    -0.0000
 10 Cl    17.5244    17.0000    -0.5244     0.8132     0.8132     0.0000
 11 Cl    17.5162    17.0000    -0.5162     0.8227     0.8227     0.0000

  Mayer bond orders larger than 0.1
B(  0-C ,  1-N ) :   0.8998 B(  0-C ,  2-H ) :   0.9710 B(  0-C ,  3-H ) :   0.9702 
B(  0-C ,  4-H ) :   0.9702 B(  1-N ,  5-H ) :   0.8274 B(  1-N ,  6-H ) :   0.7928 
B(  1-N ,  7-H ) :   0.7932 B(  5-H , 11-Cl) :   0.1334 B(  6-H ,  9-Cl) :   0.1828 
B(  7-H , 10-Cl) :   0.1812 B(  8-Pb,  9-Cl) :   0.6631 B(  8-Pb, 10-Cl) :   0.6308 
B(  8-Pb, 11-Cl) :   0.6860 

-------
TIMINGS
-------

Total SCF time: 0 days 0 hours 5 min 18 sec 

Total time                  ....     318.356 sec
Sum of individual times     ....     291.091 sec  ( 91.4%)

Fock matrix formation       ....     285.927 sec  ( 89.8%)
  Coulomb formation         ....     236.202 sec  ( 82.6% of F)
  Split-RI-J                ....      17.099 sec  (  6.0% of F)
  Chain of spheres X        ....     245.087 sec  ( 85.7% of F)
  COS-X 1 center corr.      ....       0.000 sec  (  0.0% of F)
  XC integration            ....      49.871 sec  ( 17.4% of F)
    Basis function eval.    ....      15.783 sec  ( 31.6% of XC)
    Density eval.           ....      13.950 sec  ( 28.0% of XC)
    XC-Functional eval.     ....       3.067 sec  (  6.1% of XC)
    XC-Potential eval.      ....      16.084 sec  ( 32.3% of XC)
Diagonalization             ....       0.620 sec  (  0.2%)
Density matrix formation    ....       0.052 sec  (  0.0%)
Population analysis         ....       0.068 sec  (  0.0%)
Initial guess               ....       0.138 sec  (  0.0%)
Orbital Transformation      ....       0.000 sec  (  0.0%)
Orbital Orthonormalization  ....       0.135 sec  (  0.0%)
DIIS solution               ....       0.175 sec  (  0.1%)
SOSCF solution              ....       0.072 sec  (  0.0%)
Grid generation             ....       4.038 sec  (  1.3%)

------------------------------------------------------------------------------
                              ORCA MP2 CALCULATION
------------------------------------------------------------------------------


----------------------
RI-MP2 ENERGY+GRADIENT
----------------------
Dimension of the basis                    ...  259
Memory devoted to MP2                     ... 1000 MB   
Data format for buffers                   ... DOUBLE
Compression type for matrix containers    ... UNCOMPRESSED
Overall scaling of the MP2 energy         ...   2.700e-01 Eh
Calculating two index integrals           ... done (    0.011 sec)
Cholesky decomposition of the V-matrix    ... done
Cholesky decomposition of V**-1           ... done (    0.025 sec)

-----------------
RI-TRANSFORMATION (AUX index driven)
-----------------

Dimension of the orbital-basis         ... 259
Dimension of the aux-basis             ... 493
Transformation of internal MOs         ...    0-  45
Transformation of internal/external MOs...    0-  45 to   46- 258
Number Format for Storage              ... Double (8 Byte)
Integral mode                          ... Direct

First Phase: integral generation and transformation of MO indices
  Aux angular momentum 0               ... done (    0.578 sec)
  Aux angular momentum 1               ... done (    0.337 sec)
  Aux angular momentum 2               ... done (    0.393 sec)
  Aux angular momentum 3               ... done (    0.231 sec)
  Aux angular momentum 4               ... done (    0.199 sec)
Closing buffer VIJ ( 0.00 GB; CompressionRatio= 1.95)
Closing buffer VIA ( 0.04 GB; CompressionRatio= 1.00)
  Phase 1 completed in     1.918 sec
Second Phase: sorting and transformation of aux index

IJ-Transformation
Memory available                       ... 990 MB 
Max. # MO pairs treated in a batch     ... 46    
# of internal orbitals                 ... 46
# batches for internal orbitals        ... 1
Closing buffer IJV ( 0.00 GB; CompressionRatio= 1.00)
(ij|v) transformation done in     0.109 sec

IA-Transformation
Memory available                       ... 990 MB 
Max. # MO pairs treated in a batch     ... 46    
# of internal orbitals                 ... 46
# batches for internal orbitals        ... 1
Closing buffer IAV ( 0.04 GB; CompressionRatio= 1.00)
(ia|v) transformation done in     0.475 sec

  Phase 2 completed in     0.600 sec
RI-Integral transformation completed in     2.518 sec
Opening buffers                              ... done

Starting loop over batches of integrals:

Operator 0  - window                       ... (  0- 45)x( 46-258)
Operator 0  - Memory available             ...  1000 MB
Operator 0  - Memory needed per MO         ...   1.6 MB
Operator 0  - Number of orbitals per batch ... 46
Operator 0  - Number of batches            ... 1

OPERATOR  0   PASS   0:  MOs     0 ...   45
  Reading integrals       ... ok
  Internal MO   2
  Internal MO   5
  Internal MO   8
  Internal MO  11
  Internal MO  14
  Internal MO  17
  Internal MO  20
  Internal MO  23
  Internal MO  26
  Internal MO  29
  Internal MO  32
  Internal MO  35
  Internal MO  38
  Internal MO  41
  Internal MO  44
Closing buffer GIPV ( 0.04 GB; CompressionRatio= 1.00)
Time spent in pair loops =    51.590 sec

-----------------------------------------------
 RI-MP2 CORRELATION ENERGY:     -0.582176811 Eh
-----------------------------------------------


---------------------
MP2 DENSITY FORMATION
---------------------

Completing the external part of the density      ... done
Storing the unrelaxed density                    ... done

Calculating the xc-kernel                        ... done
Calculating G(D)                                 ... done
Completing the Lagrangian                        ... done
Solving the Z-vector equations                   ... 

------------------------------------------------------------------------------
                           ORCA CP-SCF CALCULATION
------------------------------------------------------------------------------

Input orbitals are from        ... PbMACl3_mp2_md2_21.orca.gbw
Input Perturbation             ... PbMACl3_mp2_md2_21.orca.pin.tmp
Wavefunction output            ... PbMACl3_mp2_md2_21.orca.pout.tmp
Perturbation mode              ... Real perturbation
Solver                         ... DIIS
   MaxDIIS                     ... 20
   Levelshift                  ...    3.000e-01 Eh
Max. number of iterations      ... 128
Convergence tolerance          ... 1.000e-08
Integral handling              ... Direct
COSX GridX                     ... 1
Number of perturbations        ... 1
Number of operators            ... 1
Orbital ranges used for CP-SCF:
 Operator 0:  Orbitals   0... 45  to  46...258
DFT calculation                         ... on
Exchange functional (SCF)               ... B88
Exchange functional (CP-SCF)            ... B88
   X-Alpha parameter    XAlpha (SCF)    ...  0.666667
   X-Alpha parameter    XAlpha (CP-SCF) ...  0.666667
   Becke's b parameter  XBeta (SCF)     ...  0.004200
   Becke's b parameter  XBeta (CP-SCF)  ...  0.004200
Correlation functional (SCF)            ... LYP
Correlation functional (CP-SCF)         ... LYP
 LDA part of GGA corr.  LDAOpt (SCF)    ... VWN-3
 LDA part of GGA corr.  LDAOpt (CP-SCF) ... VWN-3
Hybrid DFT                              ... on
   Exchange mixing (SCF)                ...  0.530
   Exchange mixing (CP-SCF)             ...  0.530
   GGA exch. scaling(SCF)               ...  0.470
   GGA exch. scaling (CP-SCF)           ...  0.470
   GGA corr. scaling (SCF)              ...  0.730
   GGA corr. scaling (CP-SCF)           ...  0.730
The RIJCOSX approximation is active
Variables per vector in CP-SCF ... 9798
Number of vectors sought       ... 1
Calculating the xc-kernel      ... done

Solving the CP-SCF equations by a DIIS algorithm

-----------------
CP-SCF ITERATIONS
-----------------
  Iteration   0: MaxR=  0.088917505
  Iteration   1: MaxR=  0.042374874
  Iteration   2: MaxR=  0.011885794
  Iteration   3: MaxR=  0.004745510
  Iteration   4: MaxR=  0.002121990
  Iteration   5: MaxR=  0.000823406
  Iteration   6: MaxR=  0.000331638
  Iteration   7: MaxR=  0.000098482
  Iteration   8: MaxR=  0.000036197
  Iteration   9: MaxR=  0.000009838
  Iteration  10: MaxR=  0.000003805
  Iteration  11: MaxR=  0.000001486
  Iteration  12: MaxR=  0.000000683
  Iteration  13: MaxR=  0.000000205
  Iteration  14: MaxR=  0.000000076
  Iteration  15: MaxR=  0.000000030
  Iteration  16: MaxR=  0.000000010
  Iteration  17: MaxR=  0.000000003
                              *** THE CP-SCF HAS CONVERGED *** 
done
Finalizing the relaxed density                   ... done
Transforming P to the AO basis                   ... done
Storing the relaxed density                      ... done

------------------------------------
ENERGY WEIGHTED DENSITY FINALIZATION
------------------------------------

Gathering the parts of the W-matrix              ... done
Forming the Z-density                            ... done
Transforming Z to the AO basis                   ... done
Calculating G(Z)                                 ... done
Finalizing the W-matrix                          ... done
Transforming W to the AO basis and storing       ... done
Entering the RIJONX and RIJCOSX sections
Starting the three-index derivative integrals:
Operator 0  - Memory available             ...  1000 MB
Operator 0  - Memory needed per MO         ...   1.0 MB
Operator 0  - Number of orbitals per batch ... 46
Operator 0  - Number of batches            ... 1

OPERATOR  0   PASS   0:  MOs     0 ...   45

----------------------------------
MP2 DERIVATIVE INTEGRAL GENERATION
----------------------------------


Input Correlated Electron Density   ... PbMACl3_mp2_md2_21.orca.pmp2re
Input Energy Weighted Density       ... PbMACl3_mp2_md2_21.orca.wmp2.tmp
Input SCF Electron Density          ... PbMACl3_mp2_md2_21.orca.scfp.tmp

One-Electron Terms    ...
  ECP gradient                                           ... One-Electron Terms done

-----------------------------------------------------------
MP2 COSX Grid Generation
-----------------------------------------------------------

General Integration Accuracy     IntAcc      ...  4.340
Radial Grid Type                 RadialGrid  ... Gauss-Chebyshev
Angular Grid (max. acc.)         AngularGrid ... Lebedev-302
Angular grid pruning method      GridPruning ... 3 (G Style)
Weight generation scheme         WeightScheme... Becke
Basis function cutoff            BFCut       ...    1.0000e-11
Integration weight cutoff        WCut        ...    1.0000e-14
Grids for H and He will be reduced by one unit

# of grid points (after initial pruning)     ...  57718 (   0.0 sec)
# of grid points (after weights+screening)   ...  54251 (   0.1 sec)
nearest neighbour list constructed           ...    0.0 sec
Grid point re-assignment to atoms done       ...    0.0 sec
Grid point division into batches done        ...    0.2 sec
Reduced shell lists constructed in    1.0 sec

Total number of grid points                  ...    54251
Total number of batches                      ...      854
Average number of points per batch           ...       63
Average number of grid points per atom       ...     4521
Average number of shells per batch           ...    57.84 (57.27%)
Average number of basis functions per batch  ...   153.97 (59.45%)
Average number of large shells per batch     ...    44.07 (76.19%)
Average number of large basis fcns per batch ...   114.20 (74.17%)
Maximum spatial batch extension              ...  35.78, 34.50, 31.14 au
Average spatial batch extension              ...   3.04,  3.04,  3.00 au

Overlap Fitting                  UseSFitting ... on
Two electron COSX terms .... 
Integration Timings:
Total Time                  =   106.0 sec
Basis fcn evaluation        =     0.3 sec
Density evaluation          =     1.0 sec
Integral evaluation         =   102.6 sec
K(P) evaluation             =     0.9 sec
                          .... COSX two electron terms done
COSX two-electron contribution to the gradient
     0:    -0.019906    -0.023057    -0.021071
     1:     0.060290     0.063929     0.043876
     2:     0.100414    -0.081880     0.107519
     3:    -0.103949     0.097543     0.089145
     4:     0.096204     0.099590    -0.097325
     5:    -0.109541    -0.111204     0.094939
     6:     0.088381    -0.106593    -0.097140
     7:    -0.109503     0.068269    -0.110743
     8:    -0.031846    -0.030257    -0.033465
     9:     0.071085    -0.016408    -0.012108
    10:    -0.014150     0.060986    -0.029099
    11:    -0.027207    -0.020701     0.065939
Exchange-correlation gradient    ... done
Dispersion correction            ... 
Entering the calculation of the dispersion correction...

Checking the input atom types...

Done
done

                *********************************************
                * UNRELAXED MP2 DENSITY POPULATION ANALYSIS *
                *********************************************

------------------------------------------------------------------------------
                           ORCA POPULATION ANALYSIS
------------------------------------------------------------------------------
Input electron density              ... PbMACl3_mp2_md2_21.orca.pmp2ur
BaseName (.gbw .S,...)              ... PbMACl3_mp2_md2_21.orca

                    ********************************
                    * MULLIKEN POPULATION ANALYSIS *
                    ********************************

-----------------------
MULLIKEN ATOMIC CHARGES
-----------------------
   0 C :   -0.266147
   1 N :   -0.329531
   2 H :    0.159649
   3 H :    0.158981
   4 H :    0.162165
   5 H :    0.288717
   6 H :    0.296922
   7 H :    0.295326
   8 Pb:    0.761676
   9 Cl:   -0.499904
  10 Cl:   -0.518075
  11 Cl:   -0.509778
Sum of atomic charges:   -0.0000000

--------------------------------
MULLIKEN REDUCED ORBITAL CHARGES
--------------------------------
  0 C s       :     3.280093  s :     3.280093
      pz      :     0.976859  p :     2.901236
      px      :     0.989977
      py      :     0.934400
      dz2     :     0.009002  d :     0.077515
      dxz     :     0.019865
      dyz     :     0.019419
      dx2y2   :     0.009533
      dxy     :     0.019696
      f0      :     0.000518  f :     0.007304
      f+1     :     0.000683
      f-1     :     0.000914
      f+2     :     0.000950
      f-2     :     0.002769
      f+3     :     0.000683
      f-3     :     0.000787
  1 N s       :     3.427150  s :     3.427150
      pz      :     1.280263  p :     3.841668
      px      :     1.289519
      py      :     1.271886
      dz2     :     0.007758  d :     0.057529
      dxz     :     0.014457
      dyz     :     0.013461
      dx2y2   :     0.008220
      dxy     :     0.013633
      f0      :     0.000258  f :     0.003184
      f+1     :     0.000308
      f-1     :     0.000347
      f+2     :     0.000372
      f-2     :     0.001271
      f+3     :     0.000308
      f-3     :     0.000320
  2 H s       :     0.817593  s :     0.817593
      pz      :     0.008605  p :     0.022758
      px      :     0.008126
      py      :     0.006026
  3 H s       :     0.818286  s :     0.818286
      pz      :     0.007255  p :     0.022733
      px      :     0.007651
      py      :     0.007827
  4 H s       :     0.815033  s :     0.815033
      pz      :     0.007156  p :     0.022802
      px      :     0.007747
      py      :     0.007899
  5 H s       :     0.670347  s :     0.670347
      pz      :     0.009980  p :     0.040936
      px      :     0.015017
      py      :     0.015939
  6 H s       :     0.655795  s :     0.655795
      pz      :     0.016237  p :     0.047282
      px      :     0.012148
      py      :     0.018898
  7 H s       :     0.657532  s :     0.657532
      pz      :     0.021512  p :     0.047143
      px      :     0.016637
      py      :     0.008994
  8 Pbs       :     3.909112  s :     3.909112
      pz      :     2.372476  p :     7.090090
      px      :     2.357737
      py      :     2.359877
      dz2     :     2.024788  d :    10.129650
      dxz     :     2.027855
      dyz     :     2.026940
      dx2y2   :     2.025347
      dxy     :     2.024720
      f0      :     0.020029  f :     0.109472
      f+1     :     0.016677
      f-1     :     0.015472
      f+2     :     0.013998
      f-2     :     0.008052
      f+3     :     0.017335
      f-3     :     0.017909
  9 Cls       :     5.948070  s :     5.948070
      pz      :     3.899185  p :    11.485088
      px      :     3.700944
      py      :     3.884958
      dz2     :     0.011077  d :     0.062884
      dxz     :     0.011867
      dyz     :     0.010585
      dx2y2   :     0.017304
      dxy     :     0.012051
      f0      :     0.000493  f :     0.003862
      f+1     :     0.000601
      f-1     :     0.000439
      f+2     :     0.000555
      f-2     :     0.000468
      f+3     :     0.000735
      f-3     :     0.000570
 10 Cls       :     5.949275  s :     5.949275
      pz      :     3.862394  p :    11.504104
      px      :     3.916256
      py      :     3.725454
      dz2     :     0.012323  d :     0.061000
      dxz     :     0.010891
      dyz     :     0.012086
      dx2y2   :     0.015161
      dxy     :     0.010539
      f0      :     0.000467  f :     0.003696
      f+1     :     0.000530
      f-1     :     0.000528
      f+2     :     0.000575
      f-2     :     0.000445
      f+3     :     0.000526
      f-3     :     0.000626
 11 Cls       :     5.948091  s :     5.948091
      pz      :     3.727275  p :    11.497456
      px      :     3.885022
      py      :     3.885159
      dz2     :     0.017974  d :     0.060520
      dxz     :     0.012297
      dyz     :     0.011331
      dx2y2   :     0.008731
      dxy     :     0.010187
      f0      :     0.000759  f :     0.003712
      f+1     :     0.000660
      f-1     :     0.000570
      f+2     :     0.000438
      f-2     :     0.000458
      f+3     :     0.000420
      f-3     :     0.000407


                     *******************************
                     * LOEWDIN POPULATION ANALYSIS *
                     *******************************

----------------------
LOEWDIN ATOMIC CHARGES
----------------------
   0 C :   -0.277100
   1 N :    0.065955
   2 H :    0.126216
   3 H :    0.125938
   4 H :    0.127575
   5 H :    0.170184
   6 H :    0.142751
   7 H :    0.143577
   8 Pb:   -0.116250
   9 Cl:   -0.148642
  10 Cl:   -0.186926
  11 Cl:   -0.173277

-------------------------------
LOEWDIN REDUCED ORBITAL CHARGES
-------------------------------
  0 C s       :     2.852417  s :     2.852417
      pz      :     1.029632  p :     3.072949
      px      :     1.039987
      py      :     1.003329
      dz2     :     0.030838  d :     0.312853
      dxz     :     0.081114
      dyz     :     0.083628
      dx2y2   :     0.034706
      dxy     :     0.082567
      f0      :     0.005480  f :     0.038881
      f+1     :     0.004159
      f-1     :     0.005975
      f+2     :     0.004607
      f-2     :     0.007470
      f+3     :     0.005153
      f-3     :     0.006037
  1 N s       :     3.000445  s :     3.000445
      pz      :     1.251985  p :     3.751592
      px      :     1.251531
      py      :     1.248077
      dz2     :     0.019384  d :     0.171132
      dxz     :     0.044396
      dyz     :     0.043045
      dx2y2   :     0.020984
      dxy     :     0.043323
      f0      :     0.001642  f :     0.010876
      f+1     :     0.001305
      f-1     :     0.001582
      f+2     :     0.001206
      f-2     :     0.002053
      f+3     :     0.001415
      f-3     :     0.001673
  2 H s       :     0.809702  s :     0.809702
      pz      :     0.023478  p :     0.064083
      px      :     0.022338
      py      :     0.018267
  3 H s       :     0.810038  s :     0.810038
      pz      :     0.019978  p :     0.064024
      px      :     0.022872
      py      :     0.021174
  4 H s       :     0.808257  s :     0.808257
      pz      :     0.021452  p :     0.064168
      px      :     0.021340
      py      :     0.021376
  5 H s       :     0.707489  s :     0.707489
      pz      :     0.032992  p :     0.122327
      px      :     0.043493
      py      :     0.045843
  6 H s       :     0.710713  s :     0.710713
      pz      :     0.049083  p :     0.146536
      px      :     0.040430
      py      :     0.057022
  7 H s       :     0.710231  s :     0.710231
      pz      :     0.065578  p :     0.146192
      px      :     0.051157
      py      :     0.029457
  8 Pbs       :     3.671793  s :     3.671793
      pz      :     2.531532  p :     7.552318
      px      :     2.518268
      py      :     2.502519
      dz2     :     2.152431  d :    10.634351
      dxz     :     2.110977
      dyz     :     2.110763
      dx2y2   :     2.167015
      dxy     :     2.093164
      f0      :     0.050106  f :     0.257788
      f+1     :     0.044621
      f-1     :     0.033575
      f+2     :     0.028962
      f-2     :     0.013786
      f+3     :     0.044934
      f-3     :     0.041804
  9 Cls       :     5.719970  s :     5.719970
      pz      :     3.837609  p :    11.339613
      px      :     3.679611
      py      :     3.822393
      dz2     :     0.015467  d :     0.083549
      dxz     :     0.011907
      dyz     :     0.012701
      dx2y2   :     0.031453
      dxy     :     0.012020
      f0      :     0.000534  f :     0.005510
      f+1     :     0.001062
      f-1     :     0.000500
      f+2     :     0.000714
      f-2     :     0.000523
      f+3     :     0.001525
      f-3     :     0.000653
 10 Cls       :     5.737683  s :     5.737683
      pz      :     3.801124  p :    11.364619
      px      :     3.858486
      py      :     3.705010
      dz2     :     0.016783  d :     0.079529
      dxz     :     0.012607
      dyz     :     0.013201
      dx2y2   :     0.026442
      dxy     :     0.010497
      f0      :     0.000589  f :     0.005094
      f+1     :     0.000739
      f-1     :     0.000786
      f+2     :     0.000785
      f-2     :     0.000450
      f+3     :     0.000580
      f-3     :     0.001167
 11 Cls       :     5.729788  s :     5.729788
      pz      :     3.705285  p :    11.358624
      px      :     3.827627
      py      :     3.825713
      dz2     :     0.034416  d :     0.079701
      dxz     :     0.014219
      dyz     :     0.011479
      dx2y2   :     0.008621
      dxy     :     0.010966
      f0      :     0.001635  f :     0.005164
      f+1     :     0.001028
      f-1     :     0.000697
      f+2     :     0.000445
      f-2     :     0.000471
      f+3     :     0.000464
      f-3     :     0.000424


                      *****************************
                      * MAYER POPULATION ANALYSIS *
                      *****************************

  NA   - Mulliken gross atomic population
  ZA   - Total nuclear charge
  QA   - Mulliken gross atomic charge
  VA   - Mayer's total valence
  BVA  - Mayer's bonded valence
  FA   - Mayer's free valence

  ATOM       NA         ZA         QA         VA         BVA        FA
  0 C      6.2661     6.0000    -0.2661     3.8877     3.7727     0.1150
  1 N      7.3295     7.0000    -0.3295     3.3530     3.2066     0.1464
  2 H      0.8404     1.0000     0.1596     0.9652     0.9468     0.0184
  3 H      0.8410     1.0000     0.1590     0.9644     0.9460     0.0184
  4 H      0.8378     1.0000     0.1622     0.9663     0.9479     0.0184
  5 H      0.7113     1.0000     0.2887     0.9653     0.9443     0.0210
  6 H      0.7031     1.0000     0.2969     0.9670     0.9462     0.0208
  7 H      0.7047     1.0000     0.2953     0.9719     0.9511     0.0208
  8 Pb    21.2383    22.0000     0.7617     2.3153     1.9484     0.3669
  9 Cl    17.4999    17.0000    -0.4999     1.0766     0.8170     0.2596
 10 Cl    17.5181    17.0000    -0.5181     1.0490     0.7886     0.2604
 11 Cl    17.5098    17.0000    -0.5098     1.0580     0.7975     0.2605

  Mayer bond orders larger than 0.1
B(  0-C ,  1-N ) :   0.8774 B(  0-C ,  2-H ) :   0.9559 B(  0-C ,  3-H ) :   0.9551 
B(  0-C ,  4-H ) :   0.9551 B(  1-N ,  5-H ) :   0.8119 B(  1-N ,  6-H ) :   0.7781 
B(  1-N ,  7-H ) :   0.7785 B(  5-H , 11-Cl) :   0.1312 B(  6-H ,  9-Cl) :   0.1796 
B(  7-H , 10-Cl) :   0.1781 B(  8-Pb,  9-Cl) :   0.6432 B(  8-Pb, 10-Cl) :   0.6117 
B(  8-Pb, 11-Cl) :   0.6652 


                *******************************************
                * RELAXED MP2 DENSITY POPULATION ANALYSIS *
                *******************************************

------------------------------------------------------------------------------
                           ORCA POPULATION ANALYSIS
------------------------------------------------------------------------------
Input electron density              ... PbMACl3_mp2_md2_21.orca.pmp2re
BaseName (.gbw .S,...)              ... PbMACl3_mp2_md2_21.orca

                    ********************************
                    * MULLIKEN POPULATION ANALYSIS *
                    ********************************

-----------------------
MULLIKEN ATOMIC CHARGES
-----------------------
   0 C :   -0.284170
   1 N :   -0.323707
   2 H :    0.163162
   3 H :    0.162542
   4 H :    0.165551
   5 H :    0.282591
   6 H :    0.290731
   7 H :    0.288574
   8 Pb:    0.709613
   9 Cl:   -0.475872
  10 Cl:   -0.493662
  11 Cl:   -0.485353
Sum of atomic charges:   -0.0000000

--------------------------------
MULLIKEN REDUCED ORBITAL CHARGES
--------------------------------
  0 C s       :     3.282745  s :     3.282745
      pz      :     0.983390  p :     2.920988
      px      :     0.996185
      py      :     0.941413
      dz2     :     0.009187  d :     0.073297
      dxz     :     0.018310
      dyz     :     0.017888
      dx2y2   :     0.009734
      dxy     :     0.018177
      f0      :     0.000500  f :     0.007140
      f+1     :     0.000674
      f-1     :     0.000900
      f+2     :     0.000941
      f-2     :     0.002686
      f+3     :     0.000668
      f-3     :     0.000771
  1 N s       :     3.428219  s :     3.428219
      pz      :     1.278726  p :     3.835974
      px      :     1.287571
      py      :     1.269677
      dz2     :     0.007938  d :     0.056380
      dxz     :     0.013985
      dyz     :     0.012962
      dx2y2   :     0.008376
      dxy     :     0.013118
      f0      :     0.000255  f :     0.003134
      f+1     :     0.000308
      f-1     :     0.000348
      f+2     :     0.000372
      f-2     :     0.001226
      f+3     :     0.000305
      f-3     :     0.000321
  2 H s       :     0.814454  s :     0.814454
      pz      :     0.008425  p :     0.022384
      px      :     0.007978
      py      :     0.005980
  3 H s       :     0.815098  s :     0.815098
      pz      :     0.007156  p :     0.022360
      px      :     0.007513
      py      :     0.007691
  4 H s       :     0.812026  s :     0.812026
      pz      :     0.007048  p :     0.022423
      px      :     0.007619
      py      :     0.007756
  5 H s       :     0.676867  s :     0.676867
      pz      :     0.009893  p :     0.040541
      px      :     0.014866
      py      :     0.015782
  6 H s       :     0.662443  s :     0.662443
      pz      :     0.016102  p :     0.046826
      px      :     0.012018
      py      :     0.018705
  7 H s       :     0.664734  s :     0.664734
      pz      :     0.021262  p :     0.046692
      px      :     0.016459
      py      :     0.008970
  8 Pbs       :     3.924445  s :     3.924445
      pz      :     2.383501  p :     7.129468
      px      :     2.372910
      py      :     2.373056
      dz2     :     2.022805  d :    10.128680
      dxz     :     2.028961
      dyz     :     2.027819
      dx2y2   :     2.022960
      dxy     :     2.026136
      f0      :     0.019606  f :     0.107794
      f+1     :     0.016342
      f-1     :     0.015284
      f+2     :     0.013901
      f-2     :     0.008043
      f+3     :     0.017005
      f-3     :     0.017613
  9 Cls       :     5.948480  s :     5.948480
      pz      :     3.891605  p :    11.460489
      px      :     3.692576
      py      :     3.876308
      dz2     :     0.011034  d :     0.063020
      dxz     :     0.011920
      dyz     :     0.010741
      dx2y2   :     0.017237
      dxy     :     0.012088
      f0      :     0.000497  f :     0.003883
      f+1     :     0.000601
      f-1     :     0.000442
      f+2     :     0.000562
      f-2     :     0.000470
      f+3     :     0.000735
      f-3     :     0.000576
 10 Cls       :     5.949825  s :     5.949825
      pz      :     3.852667  p :    11.479008
      px      :     3.910042
      py      :     3.716298
      dz2     :     0.012431  d :     0.061111
      dxz     :     0.011025
      dyz     :     0.011947
      dx2y2   :     0.015157
      dxy     :     0.010551
      f0      :     0.000468  f :     0.003718
      f+1     :     0.000538
      f-1     :     0.000530
      f+2     :     0.000579
      f-2     :     0.000446
      f+3     :     0.000530
      f-3     :     0.000626
 11 Cls       :     5.948713  s :     5.948713
      pz      :     3.718657  p :    11.472418
      px      :     3.877320
      py      :     3.876441
      dz2     :     0.018052  d :     0.060495
      dxz     :     0.012187
      dyz     :     0.011271
      dx2y2   :     0.008733
      dxy     :     0.010252
      f0      :     0.000759  f :     0.003727
      f+1     :     0.000663
      f-1     :     0.000575
      f+2     :     0.000440
      f-2     :     0.000459
      f+3     :     0.000423
      f-3     :     0.000408


                     *******************************
                     * LOEWDIN POPULATION ANALYSIS *
                     *******************************

----------------------
LOEWDIN ATOMIC CHARGES
----------------------
   0 C :   -0.287099
   1 N :    0.062053
   2 H :    0.128153
   3 H :    0.127902
   4 H :    0.129464
   5 H :    0.168957
   6 H :    0.141334
   7 H :    0.142038
   8 Pb:   -0.141503
   9 Cl:   -0.136785
  10 Cl:   -0.174104
  11 Cl:   -0.160410

-------------------------------
LOEWDIN REDUCED ORBITAL CHARGES
-------------------------------
  0 C s       :     2.853737  s :     2.853737
      pz      :     1.034060  p :     3.086288
      px      :     1.044311
      py      :     1.007916
      dz2     :     0.031062  d :     0.308429
      dxz     :     0.079542
      dyz     :     0.081969
      dx2y2   :     0.034966
      dxy     :     0.080890
      f0      :     0.005461  f :     0.038646
      f+1     :     0.004138
      f-1     :     0.005956
      f+2     :     0.004573
      f-2     :     0.007369
      f+3     :     0.005123
      f-3     :     0.006025
  1 N s       :     3.002542  s :     3.002542
      pz      :     1.252417  p :     3.753006
      px      :     1.252316
      py      :     1.248273
      dz2     :     0.019653  d :     0.171440
      dxz     :     0.044341
      dyz     :     0.042974
      dx2y2   :     0.021238
      dxy     :     0.043235
      f0      :     0.001660  f :     0.010959
      f+1     :     0.001312
      f-1     :     0.001593
      f+2     :     0.001207
      f-2     :     0.002072
      f+3     :     0.001427
      f-3     :     0.001688
  2 H s       :     0.807684  s :     0.807684
      pz      :     0.023460  p :     0.064162
      px      :     0.022342
      py      :     0.018359
  3 H s       :     0.807992  s :     0.807992
      pz      :     0.020023  p :     0.064106
      px      :     0.022884
      py      :     0.021199
  4 H s       :     0.806306  s :     0.806306
      pz      :     0.021486  p :     0.064230
      px      :     0.021355
      py      :     0.021388
  5 H s       :     0.708795  s :     0.708795
      pz      :     0.032935  p :     0.122248
      px      :     0.043476
      py      :     0.045837
  6 H s       :     0.712316  s :     0.712316
      pz      :     0.049052  p :     0.146350
      px      :     0.040353
      py      :     0.056945
  7 H s       :     0.711982  s :     0.711982
      pz      :     0.065437  p :     0.145981
      px      :     0.051102
      py      :     0.029442
  8 Pbs       :     3.685249  s :     3.685249
      pz      :     2.536565  p :     7.573144
      px      :     2.527052
      py      :     2.509527
      dz2     :     2.149152  d :    10.627594
      dxz     :     2.111003
      dyz     :     2.110490
      dx2y2   :     2.163261
      dxy     :     2.093688
      f0      :     0.049624  f :     0.255517
      f+1     :     0.044251
      f-1     :     0.033261
      f+2     :     0.028716
      f-2     :     0.013708
      f+3     :     0.044530
      f-3     :     0.041427
  9 Cls       :     5.723327  s :     5.723327
      pz      :     3.832069  p :    11.322992
      px      :     3.674723
      py      :     3.816199
      dz2     :     0.015660  d :     0.084852
      dxz     :     0.012041
      dyz     :     0.012900
      dx2y2   :     0.032091
      dxy     :     0.012158
      f0      :     0.000540  f :     0.005614
      f+1     :     0.001087
      f-1     :     0.000504
      f+2     :     0.000726
      f-2     :     0.000526
      f+3     :     0.001565
      f-3     :     0.000667
 10 Cls       :     5.740953  s :     5.740953
      pz      :     3.794238  p :    11.347360
      px      :     3.853825
      py      :     3.699297
      dz2     :     0.017053  d :     0.080611
      dxz     :     0.012777
      dyz     :     0.013282
      dx2y2   :     0.026890
      dxy     :     0.010609
      f0      :     0.000599  f :     0.005180
      f+1     :     0.000748
      f-1     :     0.000796
      f+2     :     0.000803
      f-2     :     0.000452
      f+3     :     0.000592
      f-3     :     0.001190
 11 Cls       :     5.733063  s :     5.733063
      pz      :     3.700054  p :    11.341290
      px      :     3.821983
      py      :     3.819254
      dz2     :     0.035122  d :     0.080799
      dxz     :     0.014392
      dyz     :     0.011572
      dx2y2   :     0.008637
      dxy     :     0.011077
      f0      :     0.001668  f :     0.005258
      f+1     :     0.001059
      f-1     :     0.000715
      f+2     :     0.000449
      f-2     :     0.000474
      f+3     :     0.000467
      f-3     :     0.000426


                      *****************************
                      * MAYER POPULATION ANALYSIS *
                      *****************************

  NA   - Mulliken gross atomic population
  ZA   - Total nuclear charge
  QA   - Mulliken gross atomic charge
  VA   - Mayer's total valence
  BVA  - Mayer's bonded valence
  FA   - Mayer's free valence

  ATOM       NA         ZA         QA         VA         BVA        FA
  0 C      6.2842     6.0000    -0.2842     3.8900     3.7753     0.1147
  1 N      7.3237     7.0000    -0.3237     3.3627     3.2168     0.1459
  2 H      0.8368     1.0000     0.1632     0.9642     0.9458     0.0184
  3 H      0.8375     1.0000     0.1625     0.9633     0.9450     0.0184
  4 H      0.8344     1.0000     0.1656     0.9653     0.9470     0.0183
  5 H      0.7174     1.0000     0.2826     0.9712     0.9503     0.0209
  6 H      0.7093     1.0000     0.2907     0.9724     0.9517     0.0207
  7 H      0.7114     1.0000     0.2886     0.9778     0.9571     0.0207
  8 Pb    21.2904    22.0000     0.7096     2.3940     2.0323     0.3616
  9 Cl    17.4759    17.0000    -0.4759     1.1198     0.8616     0.2582
 10 Cl    17.4937    17.0000    -0.4937     1.0928     0.8337     0.2591
 11 Cl    17.4854    17.0000    -0.4854     1.1017     0.8426     0.2591

  Mayer bond orders larger than 0.1
B(  0-C ,  1-N ) :   0.8855 B(  0-C ,  2-H ) :   0.9531 B(  0-C ,  3-H ) :   0.9523 
B(  0-C ,  4-H ) :   0.9523 B(  1-N ,  5-H ) :   0.8083 B(  1-N ,  6-H ) :   0.7738 
B(  1-N ,  7-H ) :   0.7746 B(  5-H , 11-Cl) :   0.1409 B(  6-H ,  9-Cl) :   0.1903 
B(  7-H , 10-Cl) :   0.1887 B(  8-Pb,  9-Cl) :   0.6685 B(  8-Pb, 10-Cl) :   0.6375 
B(  8-Pb, 11-Cl) :   0.6935 


-------
TIMINGS
-------

Total time                :  540.540 sec
Integral trafo            :    2.526 sec (  0.5%)
I/O of integrals          :    0.100 sec (  0.0%)
K(i,j) Operators          :    8.414 sec (  1.6%)
T(i,j) pair energies      :    1.124 sec (  0.2%)
V-calculation             :    0.011 sec (  0.0%)
V**(-1/2)                 :    0.025 sec (  0.0%)
Gamma(ia|P)               :    8.198 sec (  1.5%)
Gamma-Trafo               :    1.093 sec (  0.2%)
D(virtual)                :    3.681 sec (  0.7%)
D(internal)               :    3.510 sec (  0.6%)
W(virtual)                :    7.359 sec (  1.4%)
W(internal)               :   12.457 sec (  2.3%)
L(virtual)                :    5.256 sec (  1.0%)
L(internal)               :    0.174 sec (  0.0%)
G(D)                      :   15.903 sec (  2.9%)
G(Z)                      :   15.592 sec (  2.9%)
Z-Vector Solution         :  328.195 sec ( 60.7%)
Z-Vector Solution         :  328.195 sec ( 60.7%)
3-Index Derivative 
+ Separable RIJ part      :    4.589 sec (  0.8%)
2-Index Derivative 
+ Separable RIJ part      :    0.035 sec (  0.0%)
Separable Gradient (COSX) :  119.731 sec ( 22.2%)


---------------------------------------
MP2 TOTAL ENERGY:    -1669.602611278 Eh
---------------------------------------

The final MP2 gradient
  0:  -0.00017599   0.00064191  -0.00091996
  1:   0.00524992  -0.00057575  -0.01719397
  2:   0.00247167  -0.00226347   0.00306793
  3:  -0.00283681   0.00252404   0.00254668
  4:   0.00300564   0.00315832  -0.00208476
  5:  -0.00823136  -0.00776389  -0.00147845
  6:  -0.00814897  -0.00526002  -0.00522563
  7:  -0.00466879  -0.00814058  -0.00142122
  8:   0.03429829   0.03704327   0.04468503
  9:  -0.02449416   0.00175130  -0.00134020
 10:   0.00326279  -0.01675612   0.00247060
 11:   0.00056164  -0.00415745  -0.02261625

-----------------------------------
NORM OF THE MP2 GRADIENT:  0.081903
-----------------------------------

Entering the calculation of the dispersion correction...

Checking the input atom types...

Done


-------------------------------------------------------------------------------
                          DFT DISPERSION CORRECTION                            
                                                                               
                                DFTD3 V2.1  Rev 6                               
                          USING Becke-Johnson damping                          
-------------------------------------------------------------------------------
The B2PLYP functional is recognized
Active option DFTDOPT                   ...         4   

molecular C6(AA) [au] = 4845.827527 


            DFT-D V3
 parameters
 s6 scaling factor         :     0.6400 
 a1 scaling factor         :     0.3065 
 s8 scaling factor         :     0.9147 
 a2 scaling factor         :     5.0570 
 ad hoc parameters k1-k3   :    16.0000     1.3333    -4.0000 

 Edisp/kcal,au: -8.997428042186  -0.014338312734 
 E6   /kcal   :  -4.124975603 
 E8   /kcal   :  -4.872452439 
 % E8         :  54.153836143 

-------------------------   ----------------
Dispersion correction           -0.014338313
-------------------------   ----------------


-------------------------   --------------------
FINAL SINGLE POINT ENERGY     -1669.616949590997
-------------------------   --------------------


                            ***************************************
                            *     ORCA property calculations      *
                            ***************************************


  WARNING: The energy has been calculated at the MP2 level but the densities
           used in the property calculations are still SCF densities
           MP2 response densities have not been calculated 
           use %mp2 Density relaxed end
           or  %mp2 Density unrelaxed end

                                    ---------------------
                                    Active property flags
                                    ---------------------
   (+) Dipole Moment


------------------------------------------------------------------------------
                       ORCA ELECTRIC PROPERTIES CALCULATION
------------------------------------------------------------------------------

Dipole Moment Calculation                       ... on
Quadrupole Moment Calculation                   ... off
Polarizability Calculation                      ... off
GBWName                                         ... PbMACl3_mp2_md2_21.orca.gbw
Electron density file                           ... PbMACl3_mp2_md2_21.orca.scfp.tmp

-------------
DIPOLE MOMENT
-------------
                                X             Y             Z
Electronic contribution:    -56.63771     -74.10076     -66.86517
Nuclear contribution   :     57.44132      75.18649      67.94059
                        -----------------------------------------
Total Dipole Moment    :      0.80361       1.08573       1.07542
                        -----------------------------------------
Magnitude (a.u.)       :      1.72660
Magnitude (Debye)      :      4.38866


                         *** MP2 UNRELAXED DENSITY ***

------------------------------------------------------------------------------
                       ORCA ELECTRIC PROPERTIES CALCULATION
------------------------------------------------------------------------------

Dipole Moment Calculation                       ... on
Quadrupole Moment Calculation                   ... off
Polarizability Calculation                      ... off
GBWName                                         ... PbMACl3_mp2_md2_21.orca.gbw
Electron density file                           ... PbMACl3_mp2_md2_21.orca.pmp2ur

-------------
DIPOLE MOMENT
-------------
                                X             Y             Z
Electronic contribution:    -56.63571     -74.09876     -66.86402
Nuclear contribution   :     57.44132      75.18649      67.94059
                        -----------------------------------------
Total Dipole Moment    :      0.80560       1.08773       1.07658
                        -----------------------------------------
Magnitude (a.u.)       :      1.72950
Magnitude (Debye)      :      4.39604


                           *** MP2 RELAXED DENSITY ***

------------------------------------------------------------------------------
                       ORCA ELECTRIC PROPERTIES CALCULATION
------------------------------------------------------------------------------

Dipole Moment Calculation                       ... on
Quadrupole Moment Calculation                   ... off
Polarizability Calculation                      ... off
GBWName                                         ... PbMACl3_mp2_md2_21.orca.gbw
Electron density file                           ... PbMACl3_mp2_md2_21.orca.pmp2re

-------------
DIPOLE MOMENT
-------------
                                X             Y             Z
Electronic contribution:    -56.66506     -74.13572     -66.90254
Nuclear contribution   :     57.44132      75.18649      67.94059
                        -----------------------------------------
Total Dipole Moment    :      0.77626       1.05077       1.03805
                        -----------------------------------------
Magnitude (a.u.)       :      1.66861
Magnitude (Debye)      :      4.24126


Timings for individual modules:

Sum of individual times         ...      860.146 sec (=  14.336 min)
GTO integral calculation        ...        0.917 sec (=   0.015 min)   0.1 %
SCF iterations                  ...      318.540 sec (=   5.309 min)  37.0 %
MP2 module                      ...      540.689 sec (=   9.011 min)  62.9 %
                             ****ORCA TERMINATED NORMALLY****
TOTAL RUN TIME: 0 days 0 hours 14 minutes 21 seconds 771 msec
