
                                 *****************
                                 * O   R   C   A *
                                 *****************

           --- An Ab Initio, DFT and Semiempirical electronic structure package ---

                  #######################################################
                  #                        -***-                        #
                  #  Department of molecular theory and spectroscopy    #
                  #              Directorship: Frank Neese              #
                  # Max Planck Institute for Chemical Energy Conversion #
                  #                  D-45470 Muelheim/Ruhr              #
                  #                       Germany                       #
                  #                                                     #
                  #                  All rights reserved                #
                  #                        -***-                        #
                  #######################################################


                         Program Version 3.0.3 - RELEASE   -


 With contributions from (in alphabetic order):
   Ute Becker             : Parallelization
   Dmytro Bykov           : SCF Hessian
   Dmitry Ganyushin       : Spin-Orbit,Spin-Spin,Magnetic field MRCI
   Andreas Hansen         : Spin unrestricted coupled pair/coupled cluster methods
   Dimitrios Liakos       : Extrapolation schemes; parallel MDCI
   Robert Izsak           : Overlap fitted RIJCOSX, COSX-SCS-MP3
   Christian Kollmar      : KDIIS, OOCD, Brueckner-CCSD(T), CCSD density
   Simone Kossmann        : Meta GGA functionals, TD-DFT gradient, OOMP2, MP2 Hessian
   Taras Petrenko         : DFT Hessian,TD-DFT gradient, ASA and ECA modules, normal mode analysis, Resonance Raman, ABS, FL, XAS/XES, NRVS
   Christoph Reimann      : Effective Core Potentials
   Michael Roemelt        : Restricted open shell CIS
   Christoph Riplinger    : Improved optimizer, TS searches, QM/MM, DLPNO-CCSD
   Barbara Sandhoefer     : DKH picture change effects
   Igor Schapiro          : Molecular dynamics
   Kantharuban Sivalingam : CASSCF convergence, NEVPT2
   Boris Wezisla          : Elementary symmetry handling
   Frank Wennmohs         : Technical directorship


 We gratefully acknowledge several colleagues who have allowed us to
 interface, adapt or use parts of their codes:
   Stefan Grimme, W. Hujo, H. Kruse, T. Risthaus : VdW corrections, initial TS optimization,
                                                   DFT functionals, gCP
   Ed Valeev                                     : LibInt (2-el integral package), F12 methods
   Garnet Chan, S. Sharma, R. Olivares           : DMRG
   Ulf Ekstrom                                   : XCFun DFT Library
   Mihaly Kallay                                 : mrcc  (arbitrary order and MRCC methods)
   Andreas Klamt, Michael Diedenhofen            : otool_cosmo (COSMO solvation model)
   Frank Weinhold                                : gennbo (NPA and NBO analysis)
   Christopher J. Cramer and Donald G. Truhlar   : smd solvation model


 Your calculation uses the libint2 library for the computation of 2-el integrals
 For citations please refer to: http://libint.valeyev.net

 This ORCA versions uses:
   CBLAS   interface :  Fast vector & matrix operations
   LAPACKE interface :  Fast linear algebra routines
   SCALAPACK package :  Parallel linear algebra routines


Your calculation utilizes the basis: Ahlrichs-TZV
Cite in your paper:
H - Kr: A. Schaefer, H. Horn and R. Ahlrichs, J. Chem. Phys. 97, 2571 (1992).

The def2-TZV basis will be loaded
Cite in your paper:
 	F. Weigend, R. Ahlrichs, Phys. Chem. Chem. Phys. 2005, 7, 3297.

Your calculation utilizes the atom-pairwise dispersion correction
with the Becke-Johnson damping scheme (D3BJ)
Cite in your paper:
S.Grimme, S.Ehrlich, L.Goerigk, J Comput Chem, (2011), 32, 1456–1465 
S.Grimme, J.Antony, S.Ehrlich and H.Krieg, J.Chem.Phys., 132, (2010), 154104 
   

================================================================================
                                        WARNINGS
                       Please study these warnings very carefully!
================================================================================

WARNING: The RI method has been chosen with no auxiliary basis (AUX or GTOAUX in BASIS block)
        Standard TZV/J expansion basis used (GTOAUX=TZV_J)

Now building the actual basis set
cite the ECPs for Pb [SD(60,MDF)] as follows:
  B. Metz, H. Stoll, M. Dolg, J. Chem. Phys. 113, 2563 (2000).

ECP parameters for Pb [SD(60,MDF)] have been obtained from:
  pseudopotential library of the Stuttgart/Cologne group
  http://www.theochem.uni-stuttgart.de/pseudopotentials/

cite the ECP basis sets for Pb [DEF2-TZVP] as follows:
  F. Weigend, R. Ahlrichs; Phys. Chem. Chem. Phys. 7, 3297(2005).

ECP basis sets for Pb [DEF2-TZVP] have been obtained from:
  Turbomole basis set library
  ftp://ftp.chemie.uni-karlsruhe.de/pub/basen/



INFO   : the flag for use of LIBINT has been found!

================================================================================
                                       INPUT FILE
================================================================================
NAME = PbMACl3_mp2_4.orca
|  1> ! RIJCOSX RI-B2PLYP D3BJ def2-TZVP ECP{def2-TZVP} TIGHTSCF Grid5 FinalGrid6 SlowConv MORead
|  2> %method
|  3>  RunTyp Gradient
|  4>  end
|  5> %maxcore 1000
|  6> %moinp "previous.gbw"
|  7> *xyz 0 1
|  8> C 2.905719 3.576013 2.873338
|  9> N 2.134625 2.614408 2.046990
| 10> H 3.548796 3.021424 3.560517
| 11> H 2.209179 4.197444 3.440826
| 12> H 3.515705 4.204875 2.220874
| 13> H 1.516852 1.975028 2.601630
| 14> H 2.717740 1.973704 1.464858
| 15> H 1.486857 3.059076 1.361735
| 16> Pb 0.687904 0.131547 0.209487
| 17> Cl 2.426783 0.268387 0.089874
| 18> Cl -0.358321 2.735046 -0.108798
| 19> Cl 0.286792 0.320768 2.851419
| 20> *
| 21> 
| 22>                          ****END OF INPUT****
================================================================================

                     *******************************
                     * Energy+Gradient Calculation *
                     *******************************

---------------------------------
CARTESIAN COORDINATES (ANGSTROEM)
---------------------------------
  C      2.905719    3.576013    2.873338
  N      2.134625    2.614408    2.046990
  H      3.548796    3.021424    3.560517
  H      2.209179    4.197444    3.440826
  H      3.515705    4.204875    2.220874
  H      1.516852    1.975028    2.601630
  H      2.717740    1.973704    1.464858
  H      1.486857    3.059076    1.361735
  Pb     0.687904    0.131547    0.209487
  Cl     2.426783    0.268387    0.089874
  Cl    -0.358321    2.735046   -0.108798
  Cl     0.286792    0.320768    2.851419

----------------------------
CARTESIAN COORDINATES (A.U.)
----------------------------
  NO LB      ZA    FRAG    MASS        X           Y           Z
   0 C     6.0000    0    12.011          5.491013132131525          6.757685221342137          5.429821910189021
   1 N     7.0000    0    14.007          4.033856648621652          4.940515122332791          3.868250498875463
   2 H     1.0000    0     1.008          6.706252545155202          5.709663894456884          6.728402025170893
   3 H     1.0000    0     1.008          4.174743290810016          7.932019622470954          6.502218814475724
   4 H     1.0000    0     1.008          6.643719617657614          7.946062177372124          4.196843637946225
   5 H     1.0000    0     1.008          2.866434865690719          3.732262026826222          4.916368201793546
   6 H     1.0000    0     1.008          5.135784303203143          3.729760029424910          2.768180445083617
   7 H     1.0000    0     1.008          2.809752530303751          5.780815862851287          2.573306216975256
   8 Pb   22.0000*   0   207.200  1.299950166428965  0.248587803738939  0.395873058616761
   9 Cl   17.0000    0    35.453          4.585955256455817          0.507177927904723          0.169837246560039
  10 Cl   17.0000    0    35.453         -0.677128558032797          5.168487903676784         -0.205598423918364
  11 Cl   17.0000    0    35.453          0.541958337399544          0.606163672525652          5.388401003059601
* core charge reduced due to ECP

--------------------------------
INTERNAL COORDINATES (ANGSTROEM)
--------------------------------
 C      0   0   0   0.000000     0.000     0.000
 N      1   0   0   1.483955     0.000     0.000
 H      1   2   0   1.092397   109.099     0.000
 H      1   2   3   1.092423   109.061   240.173
 H      1   2   3   1.092364   109.305   120.114
 H      2   1   3   1.047891   114.015    60.210
 H      2   1   3   1.043744   114.712   299.789
 H      2   1   3   1.042549   114.361   179.707
 Pb     7   2   1   3.014918   103.366   175.430
 Cl     9   7   2   1.748351    46.453   178.822
 Cl     8   2   1   2.381626   146.016   194.694
 Cl     6   2   1   2.076540   154.023   192.121

---------------------------
INTERNAL COORDINATES (A.U.)
---------------------------
 C      0   0   0   0.000000     0.000     0.000
 N      1   0   0   2.804268     0.000     0.000
 H      1   2   0   2.064332   109.099     0.000
 H      1   2   3   2.064379   109.061   240.173
 H      1   2   3   2.064269   109.305   120.114
 H      2   1   3   1.980227   114.015    60.210
 H      2   1   3   1.972391   114.712   299.789
 H      2   1   3   1.970131   114.361   179.707
 Pb     7   2   1   5.697370   103.366   175.430
 Cl     9   7   2   3.303905    46.453   178.822
 Cl     8   2   1   4.500622   146.016   194.694
 Cl     6   2   1   3.924092   154.023   192.121

---------------------
BASIS SET INFORMATION
---------------------
There are 5 groups of distinct atoms

 Group   1 Type C   : 11s6p2d1f contracted to 5s3p2d1f pattern {62111/411/11/1}
 Group   2 Type N   : 11s6p2d1f contracted to 5s3p2d1f pattern {62111/411/11/1}
 Group   3 Type H   : 5s1p contracted to 3s1p pattern {311/1}
 Group   4 Type Pb  : 10s9p8d2f contracted to 6s5p3d2f pattern {421111/33111/611/11}
 Group   5 Type Cl  : 14s9p3d1f contracted to 5s5p2d1f pattern {73211/51111/21/1}

Atom   0C    basis set group =>   1
Atom   1N    basis set group =>   2
Atom   2H    basis set group =>   3
Atom   3H    basis set group =>   3
Atom   4H    basis set group =>   3
Atom   5H    basis set group =>   3
Atom   6H    basis set group =>   3
Atom   7H    basis set group =>   3
Atom   8Pb   basis set group =>   4
Atom   9Cl   basis set group =>   5
Atom  10Cl   basis set group =>   5
Atom  11Cl   basis set group =>   5
-------------------------------
AUXILIARY BASIS SET INFORMATION
-------------------------------
There are 5 groups of distinct atoms

 Group   1 Type C   : 12s5p4d2f1g contracted to 6s4p3d1f1g pattern {711111/2111/211/2/1}
 Group   2 Type N   : 12s5p4d2f1g contracted to 6s4p3d1f1g pattern {711111/2111/211/2/1}
 Group   3 Type H   : 5s2p1d contracted to 3s1p1d pattern {311/2/1}
 Group   4 Type Pb  : 31s12p8d6f3g contracted to 31s12p8d6f3g pattern {1111111111111111111111111111111/111111111111/11111111/111111/111}
 Group   5 Type Cl  : 14s5p5d2f1g contracted to 8s4p3d1f1g pattern {71111111/2111/311/2/1}

Atom   0C    basis set group =>   1
Atom   1N    basis set group =>   2
Atom   2H    basis set group =>   3
Atom   3H    basis set group =>   3
Atom   4H    basis set group =>   3
Atom   5H    basis set group =>   3
Atom   6H    basis set group =>   3
Atom   7H    basis set group =>   3
Atom   8Pb   basis set group =>   4
Atom   9Cl   basis set group =>   5
Atom  10Cl   basis set group =>   5
Atom  11Cl   basis set group =>   5

-------------------------
ECP PARAMETER INFORMATION
-------------------------

 Group 1, Type Pb ECP SD(60,MDF) (replacing 60 core electrons, lmax=5)

Atom   8Pb   ECP group =>   1


------------------------------------------------------------------------------
                           ORCA GTO INTEGRAL CALCULATION
                           -- RI-GTO INTEGRALS CHOSEN --
------------------------------------------------------------------------------

                         BASIS SET STATISTICS AND STARTUP INFO

Gaussian basis set:
 # of primitive gaussian shells          ...  186
 # of primitive gaussian functions       ...  420
 # of contracted shells                  ...  101
 # of contracted basis functions         ...  259
 Highest angular momentum                ...    3
 Maximum contraction depth               ...    7
Auxiliary gaussian basis set:
 # of primitive gaussian shells          ...  237
 # of primitive gaussian functions       ...  643
 # of contracted shells                  ...  171
 # of contracted aux-basis functions     ...  493
 Highest angular momentum                ...    4
 Maximum contraction depth               ...    7
Ratio of auxiliary to basis functions    ...  1.90
Integral package used                  ... LIBINT
 One Electron integrals                  
   ECP integrals                         ... done
 Ordering auxiliary basis shells         ... done
 Integral threshhold             Thresh  ...  2.500e-11
 Primitive cut-off               TCut    ...  2.500e-12
 Pre-screening matrix                    ... done
 Shell pair data                         ... 
 Ordering of the shell pairs             ... done (   0.001 sec) 4449 of 5151 pairs
 Determination of significant pairs      ... done (   0.000 sec)
 Creation of shell pair data             ... done (   0.002 sec)
 Storage of shell pair data              ... done (   0.002 sec)
 Shell pair data done in (   0.005 sec)
 Computing two index integrals           ... done
 Cholesky decomposition of the V-matrix  ... done


Timings:
 Total evaluation time                   ...   1.012 sec (  0.017 min)
 One electron matrix time                ...   0.429 sec (  0.007 min) = 42.4%
 Schwartz matrix evaluation time         ...   0.389 sec (  0.006 min) = 38.4%
 Two index repulsion integral time       ...   0.011 sec (  0.000 min) =  1.1%
 Cholesky decomposition of V             ...   0.139 sec (  0.002 min) = 13.8%
 Three index repulsion integral time     ...   0.000 sec (  0.000 min) =  0.0%

-------------------------------------------------------------------------------
                                 ORCA SCF
-------------------------------------------------------------------------------

------------
SCF SETTINGS
------------
Hamiltonian:
 Density Functional     Method          .... DFT(GTOs)
 Exchange Functional    Exchange        .... B88
   X-Alpha parameter    XAlpha          ....  0.666667
   Becke's b parameter  XBeta           ....  0.004200
 Correlation Functional Correlation     .... LYP
 LDA part of GGA corr.  LDAOpt          .... VWN-3
 Gradients option       PostSCFGGA      .... off
 Hybrid DFT is turned on
   Fraction HF Exchange ScalHFX         ....  0.530000
   Scaling of DF-GGA-X  ScalDFX         ....  0.470000
   Scaling of DF-GGA-C  ScalDFC         ....  0.730000
   Scaling of DF-LDA-C  ScalLDAC        ....  0.730000
   Perturbative correction              ....  0.270000
 RI-approximation to the Coulomb term is turned on
   Number of auxiliary basis functions  .... 493
   RIJ-COSX (HFX calculated with COS-X)).... on


General Settings:
 Integral files         IntName         .... PbMACl3_mp2_4.orca
 Hartree-Fock type      HFTyp           .... RHF
 Total Charge           Charge          ....    0
 Multiplicity           Mult            ....    1
 Number of Electrons    NEL             ....   92
 Basis Dimension        Dim             ....  259
 Nuclear Repulsion      ENuc            ....    628.1991528758 Eh

Convergence Acceleration:
 DIIS                   CNVDIIS         .... on
   Start iteration      DIISMaxIt       ....     0
   Startup error        DIISStart       ....  0.200000
   # of expansion vecs  DIISMaxEq       ....     5
   Bias factor          DIISBfac        ....   1.050
   Max. coefficient     DIISMaxC        ....  10.000
 Newton-Raphson         CNVNR           .... off
 SOSCF                  CNVSOSCF        .... on
   Start iteration      SOSCFMaxIt      ....   150
   Startup grad/error   SOSCFStart      ....  0.001000
 Level Shifting         CNVShift        .... on
   Level shift para.    LevelShift      ....    0.2500
   Turn off err/grad.   ShiftErr        ....    0.0000
 Zerner damping         CNVZerner       .... off
 Static damping         CNVDamp         .... on
   Fraction old density DampFac         ....    0.8500
   Max. Damping (<1)    DampMax         ....    0.9800
   Min. Damping (>=0)   DampMin         ....    0.0000
   Turn off err/grad.   DampErr         ....    0.0300
 Fernandez-Rico         CNVRico         .... off

SCF Procedure:
 Maximum # iterations   MaxIter         ....   125
 SCF integral mode      SCFMode         .... Direct
   Integral package                     .... LIBINT
 Reset frequeny         DirectResetFreq ....    20
 Integral Threshold     Thresh          ....  2.500e-11 Eh
 Primitive CutOff       TCut            ....  2.500e-12 Eh

Convergence Tolerance:
 Convergence Check Mode ConvCheckMode   .... Total+1el-Energy
 Energy Change          TolE            ....  1.000e-08 Eh
 1-El. energy change                    ....  1.000e-05 Eh
 Orbital Gradient       TolG            ....  1.000e-05
 Orbital Rotation angle TolX            ....  1.000e-05
 DIIS Error             TolErr          ....  5.000e-07


Diagonalization of the overlap matrix:
Smallest eigenvalue                        ... 1.100e-03
Time for diagonalization                   ...    0.147 sec
Threshold for overlap eigenvalues          ... 1.000e-08
Number of eigenvalues below threshold      ... 0
Time for construction of square roots      ...    0.009 sec
Total time needed                          ...    0.161 sec

---------------------
INITIAL GUESS: MOREAD
---------------------
Guess MOs are being read from file: previous.gbw
Input Geometry matches current geometry (good)
Input basis set matches current basis set (good)
MOs were renormalized
MOs were reorthogonalized (Schmidt)
                      ------------------
                      INITIAL GUESS DONE (   0.1 sec)
                      ------------------
-------------------
DFT GRID GENERATION
-------------------

General Integration Accuracy     IntAcc      ...  5.010
Radial Grid Type                 RadialGrid  ... Gauss-Chebyshev
Angular Grid (max. acc.)         AngularGrid ... Lebedev-434
Angular grid pruning method      GridPruning ... 3 (G Style)
Weight generation scheme         WeightScheme... Becke
Basis function cutoff            BFCut       ...    1.0000e-11
Integration weight cutoff        WCut        ...    1.0000e-14
Grids for H and He will be reduced by one unit

# of grid points (after initial pruning)     ... 115882 (   0.1 sec)
# of grid points (after weights+screening)   ... 108698 (   0.4 sec)
nearest neighbour list constructed           ...    0.0 sec
Grid point re-assignment to atoms done       ...    0.1 sec
Grid point division into batches done        ...    1.1 sec
Reduced shell lists constructed in    3.5 sec

Total number of grid points                  ...   108698
Total number of batches                      ...     1704
Average number of points per batch           ...       63
Average number of grid points per atom       ...     9058
Average number of shells per batch           ...    55.03 (54.49%)
Average number of basis functions per batch  ...   145.45 (56.16%)
Average number of large shells per batch     ...    41.68 (75.74%)
Average number of large basis fcns per batch ...   107.37 (73.82%)
Maximum spatial batch extension              ...  31.35, 35.02, 32.73 au
Average spatial batch extension              ...   2.38,  2.40,  2.42 au

Time for grid setup =    3.986 sec

--------------------
COSX GRID GENERATION
--------------------

General Integration Accuracy     IntAcc      ...  3.340
Radial Grid Type                 RadialGrid  ... Gauss-Chebyshev
Angular Grid (max. acc.)         AngularGrid ... Lebedev-50
Angular grid pruning method      GridPruning ... 3 (G Style)
Weight generation scheme         WeightScheme... Becke
Basis function cutoff            BFCut       ...    1.0000e-11
Integration weight cutoff        WCut        ...    1.0000e-14
Grids for H and He will be reduced by one unit

# of grid points (after initial pruning)     ...   6578 (   0.0 sec)
# of grid points (after weights+screening)   ...   6181 (   0.0 sec)
nearest neighbour list constructed           ...    0.0 sec
Grid point re-assignment to atoms done       ...    0.0 sec
Grid point division into batches done        ...    0.0 sec
Reduced shell lists constructed in    0.2 sec

Total number of grid points                  ...     6181
Total number of batches                      ...      102
Average number of points per batch           ...       60
Average number of grid points per atom       ...      515
Average number of shells per batch           ...    66.81 (66.14%)
Average number of basis functions per batch  ...   179.56 (69.33%)
Average number of large shells per batch     ...    51.99 (77.82%)
Average number of large basis fcns per batch ...   136.51 (76.03%)
Maximum spatial batch extension              ...  32.21, 26.56, 31.04 au
Average spatial batch extension              ...   6.28,  6.10,  5.98 au

Overlap Fitting                  UseSFitting ... on
Constructing numerical overlap ... done (      0.1 sec)
Inverting numerical overlap    ... done (      0.0 sec)
Obtaining analytic overlap     ... done (      0.0 sec)
Final contraction and storage  ... done (      0.0 sec)


General Integration Accuracy     IntAcc      ...  3.670
Radial Grid Type                 RadialGrid  ... Gauss-Chebyshev
Angular Grid (max. acc.)         AngularGrid ... Lebedev-50
Angular grid pruning method      GridPruning ... 3 (G Style)
Weight generation scheme         WeightScheme... Becke
Basis function cutoff            BFCut       ...    1.0000e-11
Integration weight cutoff        WCut        ...    1.0000e-14
Grids for H and He will be reduced by one unit

# of grid points (after initial pruning)     ...   8124 (   0.0 sec)
# of grid points (after weights+screening)   ...   7614 (   0.0 sec)
nearest neighbour list constructed           ...    0.0 sec
Grid point re-assignment to atoms done       ...    0.0 sec
Grid point division into batches done        ...    0.0 sec
Reduced shell lists constructed in    0.2 sec

Total number of grid points                  ...     7614
Total number of batches                      ...      125
Average number of points per batch           ...       60
Average number of grid points per atom       ...      634
Average number of shells per batch           ...    65.85 (65.20%)
Average number of basis functions per batch  ...   176.39 (68.10%)
Average number of large shells per batch     ...    51.55 (78.28%)
Average number of large basis fcns per batch ...   134.87 (76.46%)
Maximum spatial batch extension              ...  33.65, 26.94, 32.28 au
Average spatial batch extension              ...   5.77,  5.64,  5.78 au

Overlap Fitting                  UseSFitting ... on
Constructing numerical overlap ... done (      0.1 sec)
Inverting numerical overlap    ... done (      0.0 sec)
Obtaining analytic overlap     ... done (      0.0 sec)
Final contraction and storage  ... done (      0.0 sec)


General Integration Accuracy     IntAcc      ...  4.010
Radial Grid Type                 RadialGrid  ... Gauss-Chebyshev
Angular Grid (max. acc.)         AngularGrid ... Lebedev-110
Angular grid pruning method      GridPruning ... 3 (G Style)
Weight generation scheme         WeightScheme... Becke
Basis function cutoff            BFCut       ...    1.0000e-11
Integration weight cutoff        WCut        ...    1.0000e-14
Grids for H and He will be reduced by one unit

# of grid points (after initial pruning)     ...  15170 (   0.0 sec)
# of grid points (after weights+screening)   ...  14362 (   0.0 sec)
nearest neighbour list constructed           ...    0.0 sec
Grid point re-assignment to atoms done       ...    0.0 sec
Grid point division into batches done        ...    0.0 sec
Reduced shell lists constructed in    0.4 sec

Total number of grid points                  ...    14362
Total number of batches                      ...      229
Average number of points per batch           ...       62
Average number of grid points per atom       ...     1197
Average number of shells per batch           ...    62.62 (62.00%)
Average number of basis functions per batch  ...   167.85 (64.81%)
Average number of large shells per batch     ...    48.27 (77.08%)
Average number of large basis fcns per batch ...   126.17 (75.17%)
Maximum spatial batch extension              ...  29.99, 34.29, 34.29 au
Average spatial batch extension              ...   4.87,  5.16,  5.12 au

Overlap Fitting                  UseSFitting ... on
Constructing numerical overlap ... done (      0.2 sec)
Inverting numerical overlap    ... done (      0.0 sec)
Obtaining analytic overlap     ... done (      0.0 sec)
Final contraction and storage  ... done (      0.0 sec)

Time for X-Grid setup             =    1.518 sec
--------------
SCF ITERATIONS
--------------
ITER       Energy         Delta-E        Max-DP      RMS-DP      [F,P]     Damp
               ***  Starting incremental Fock matrix formation  ***
  0  -1668.6694878315   0.000000000000 0.03804695  0.00025720  0.0678464 0.8500
  1  -1668.6722601773  -0.002772345809 0.03478596  0.00025013  0.0577374 0.8500
                               ***Turning on DIIS***
  2  -1668.6747023369  -0.002442159600 0.02990634  0.00021893  0.0491257 0.8500
  3  -1668.6767956441  -0.002093307174 0.02553746  0.00018670  0.0417915 0.8500
  4  -1668.6785939403  -0.001798296198 0.02211171  0.00016168  0.0355252 0.8500
  5  -1668.6801352723  -0.001541332092 0.01930986  0.00014207  0.0301821 0.8500
  6  -1668.6814625811  -0.001327308710 0.11179704  0.00082921  0.0256435 0.0000
                      *** Initiating the SOSCF procedure ***
                           *** Shutting down DIIS ***
                      *** Re-Reading the Fockian *** 
                      *** Removing any level shift *** 
ITER      Energy       Delta-E        Grad      Rot      Max-DP    RMS-DP
  7  -1668.68946535  -0.0080027698  0.000436  0.000436  0.003415  0.000035
               *** Restarting incremental Fock matrix formation ***
  8  -1668.68948149  -0.0000161352  0.000250  0.000860  0.001181  0.000024
  9  -1668.68948406  -0.0000025705  0.000068  0.000461  0.001110  0.000014
 10  -1668.68948449  -0.0000004356  0.000037  0.000095  0.000385  0.000004
 11  -1668.68948457  -0.0000000763  0.000006  0.000016  0.000045  0.000001
 12  -1668.68948458  -0.0000000114  0.000005  0.000014  0.000028  0.000000
                  ***Gradient check signals convergence***
              ***Rediagonalizing the Fockian in SOSCF/NRSCF***

               *****************************************************
               *                     SUCCESS                       *
               *           SCF CONVERGED AFTER  13 CYCLES          *
               *****************************************************

Old exchange energy                            =    -59.315834099 Eh
New exchange energy                            =    -59.318511442 Eh
Exchange energy change after final integration =     -0.002677342 Eh
Total energy after final integration           =  -1668.692161908 Eh
Final COS-X integration done in                =    31.545 sec

----------------
TOTAL SCF ENERGY
----------------

Total Energy       :        -1668.69216191 Eh          -45407.42219 eV

Components:
Nuclear Repulsion  :          628.19915288 Eh           17094.16800 eV
Electronic Energy  :        -2296.89131478 Eh          -62501.59019 eV

One Electron Energy:        -3624.92445914 Eh          -98639.20925 eV
Two Electron Energy:         1328.03314435 Eh           36137.61906 eV

Virial components:
Potential Energy   :        -3207.79771370 Eh          -87288.61346 eV
Kinetic Energy     :         1539.10555179 Eh           41881.19126 eV
Virial Ratio       :            2.08419605


DFT components:
N(Alpha)           :       46.000012032208 electrons
N(Beta)            :       46.000012032208 electrons
N(Total)           :       92.000024064415 electrons
E(X)               :      -52.669752456891 Eh       
E(C)               :       -2.619795412590 Eh       
E(XC)              :      -55.289547869481 Eh       

---------------
SCF CONVERGENCE
---------------

  Last Energy change         ...    1.3695e-08  Tolerance :   1.0000e-08
  Last MAX-Density change    ...    1.9138e-13  Tolerance :   1.0000e-07
  Last RMS-Density change    ...    9.3095e-16  Tolerance :   5.0000e-09
  Last Orbital Gradient      ...    9.4270e-07  Tolerance :   1.0000e-05
  Last Orbital Rotation      ...    3.3982e-06  Tolerance :   1.0000e-05

             **** THE GBW FILE WAS UPDATED (PbMACl3_mp2_4.orca.gbw) ****
             **** DENSITY FILE WAS UPDATED (PbMACl3_mp2_4.orca.scfp.tmp) ****
             **** ENERGY FILE WAS UPDATED (PbMACl3_mp2_4.orca.en.tmp) ****
----------------
ORBITAL ENERGIES
----------------

  NO   OCC          E(Eh)            E(eV) 
   0   2.0000    -102.943567     -2801.2369 
   1   2.0000    -102.835638     -2798.3000 
   2   2.0000    -102.814533     -2797.7257 
   3   2.0000     -14.976790      -407.5392 
   4   2.0000     -10.719132      -291.6824 
   5   2.0000      -9.972097      -271.3546 
   6   2.0000      -9.842840      -267.8373 
   7   2.0000      -9.820410      -267.2269 
   8   2.0000      -7.610897      -207.1030 
   9   2.0000      -7.603745      -206.9084 
  10   2.0000      -7.603600      -206.9045 
  11   2.0000      -7.479688      -203.5326 
  12   2.0000      -7.478576      -203.5024 
  13   2.0000      -7.477903      -203.4841 
  14   2.0000      -7.457331      -202.9243 
  15   2.0000      -7.456140      -202.8919 
  16   2.0000      -7.455701      -202.8799 
  17   2.0000      -5.813065      -158.1816 
  18   2.0000      -3.598497       -97.9201 
  19   2.0000      -3.581498       -97.4575 
  20   2.0000      -3.580612       -97.4334 
  21   2.0000      -1.193081       -32.4654 
  22   2.0000      -1.152562       -31.3628 
  23   2.0000      -1.001768       -27.2595 
  24   2.0000      -1.001216       -27.2445 
  25   2.0000      -0.973008       -26.4769 
  26   2.0000      -0.968938       -26.3661 
  27   2.0000      -0.909685       -24.7538 
  28   2.0000      -0.872146       -23.7323 
  29   2.0000      -0.852373       -23.1943 
  30   2.0000      -0.826195       -22.4819 
  31   2.0000      -0.683277       -18.5929 
  32   2.0000      -0.675984       -18.3945 
  33   2.0000      -0.613080       -16.6827 
  34   2.0000      -0.599367       -16.3096 
  35   2.0000      -0.532402       -14.4874 
  36   2.0000      -0.529234       -14.4012 
  37   2.0000      -0.480237       -13.0679 
  38   2.0000      -0.479316       -13.0429 
  39   2.0000      -0.379548       -10.3280 
  40   2.0000      -0.342448        -9.3185 
  41   2.0000      -0.337975        -9.1968 
  42   2.0000      -0.327219        -8.9041 
  43   2.0000      -0.314786        -8.5658 
  44   2.0000      -0.304500        -8.2859 
  45   2.0000      -0.260905        -7.0996 
  46   0.0000       0.011603         0.3157 
  47   0.0000       0.023310         0.6343 
  48   0.0000       0.030115         0.8195 
  49   0.0000       0.068170         1.8550 
  50   0.0000       0.086115         2.3433 
  51   0.0000       0.099094         2.6965 
  52   0.0000       0.102126         2.7790 
  53   0.0000       0.111336         3.0296 
  54   0.0000       0.125051         3.4028 
  55   0.0000       0.131311         3.5732 
  56   0.0000       0.143901         3.9157 
  57   0.0000       0.166827         4.5396 
  58   0.0000       0.210261         5.7215 
  59   0.0000       0.214097         5.8259 
  60   0.0000       0.221423         6.0252 
  61   0.0000       0.234252         6.3743 
  62   0.0000       0.245261         6.6739 
  63   0.0000       0.251954         6.8560 
  64   0.0000       0.272049         7.4028 
  65   0.0000       0.288582         7.8527 
  66   0.0000       0.298074         8.1110 
  67   0.0000       0.312261         8.4971 
  68   0.0000       0.323267         8.7965 
  69   0.0000       0.348102         9.4723 
  70   0.0000       0.364736         9.9250 
  71   0.0000       0.375906        10.2289 
  72   0.0000       0.382353        10.4044 
  73   0.0000       0.391045        10.6409 
  74   0.0000       0.400999        10.9117 
  75   0.0000       0.435031        11.8378 
  76   0.0000       0.450289        12.2530 
  77   0.0000       0.462839        12.5945 
  78   0.0000       0.469474        12.7750 
  79   0.0000       0.479371        13.0444 
  80   0.0000       0.489067        13.3082 
  81   0.0000       0.494008        13.4426 
  82   0.0000       0.499353        13.5881 
  83   0.0000       0.502956        13.6861 
  84   0.0000       0.514528        14.0010 
  85   0.0000       0.534258        14.5379 
  86   0.0000       0.541162        14.7258 
  87   0.0000       0.557198        15.1621 
  88   0.0000       0.567315        15.4374 
  89   0.0000       0.578588        15.7442 
  90   0.0000       0.580157        15.7869 
  91   0.0000       0.586344        15.9552 
  92   0.0000       0.606460        16.5026 
  93   0.0000       0.616447        16.7744 
  94   0.0000       0.638428        17.3725 
  95   0.0000       0.651660        17.7326 
  96   0.0000       0.657466        17.8906 
  97   0.0000       0.665218        18.1015 
  98   0.0000       0.688161        18.7258 
  99   0.0000       0.708848        19.2887 
 100   0.0000       0.721266        19.6266 
 101   0.0000       0.730144        19.8682 
 102   0.0000       0.738759        20.1027 
 103   0.0000       0.762419        20.7465 
 104   0.0000       0.772020        21.0077 
 105   0.0000       0.820038        22.3144 
 106   0.0000       0.839236        22.8368 
 107   0.0000       0.861661        23.4470 
 108   0.0000       0.885385        24.0925 
 109   0.0000       0.897037        24.4096 
 110   0.0000       0.903697        24.5909 
 111   0.0000       0.920149        25.0385 
 112   0.0000       0.929967        25.3057 
 113   0.0000       0.955370        25.9969 
 114   0.0000       1.024574        27.8801 
 115   0.0000       1.034761        28.1573 
 116   0.0000       1.052494        28.6398 
 117   0.0000       1.067852        29.0577 
 118   0.0000       1.076911        29.3042 
 119   0.0000       1.142537        31.0900 
 120   0.0000       1.168746        31.8032 
 121   0.0000       1.179708        32.1015 
 122   0.0000       1.207806        32.8661 
 123   0.0000       1.220054        33.1994 
 124   0.0000       1.235525        33.6203 
 125   0.0000       1.278987        34.8030 
 126   0.0000       1.312553        35.7164 
 127   0.0000       1.332305        36.2539 
 128   0.0000       1.378045        37.4985 
 129   0.0000       1.488097        40.4932 
 130   0.0000       1.530239        41.6399 
 131   0.0000       1.556477        42.3539 
 132   0.0000       1.578058        42.9411 
 133   0.0000       1.582529        43.0628 
 134   0.0000       1.594038        43.3760 
 135   0.0000       1.605048        43.6756 
 136   0.0000       1.730716        47.0952 
 137   0.0000       1.732731        47.1500 
 138   0.0000       1.781272        48.4709 
 139   0.0000       1.846370        50.2423 
 140   0.0000       1.863658        50.7127 
 141   0.0000       1.876372        51.0587 
 142   0.0000       1.881133        51.1882 
 143   0.0000       1.887331        51.3569 
 144   0.0000       1.901971        51.7552 
 145   0.0000       1.920353        52.2555 
 146   0.0000       1.943911        52.8965 
 147   0.0000       1.960160        53.3387 
 148   0.0000       1.980831        53.9012 
 149   0.0000       1.987045        54.0702 
 150   0.0000       1.994124        54.2629 
 151   0.0000       2.001447        54.4621 
 152   0.0000       2.009393        54.6784 
 153   0.0000       2.026559        55.1455 
 154   0.0000       2.035823        55.3976 
 155   0.0000       2.073564        56.4245 
 156   0.0000       2.089559        56.8598 
 157   0.0000       2.107048        57.3357 
 158   0.0000       2.117038        57.6075 
 159   0.0000       2.135025        58.0970 
 160   0.0000       2.151435        58.5435 
 161   0.0000       2.161433        58.8156 
 162   0.0000       2.174119        59.1608 
 163   0.0000       2.183402        59.4134 
 164   0.0000       2.185148        59.4609 
 165   0.0000       2.201910        59.9170 
 166   0.0000       2.207001        60.0555 
 167   0.0000       2.224753        60.5386 
 168   0.0000       2.228967        60.6533 
 169   0.0000       2.235434        60.8293 
 170   0.0000       2.243560        61.0504 
 171   0.0000       2.255909        61.3864 
 172   0.0000       2.267883        61.7122 
 173   0.0000       2.276838        61.9559 
 174   0.0000       2.280509        62.0558 
 175   0.0000       2.292409        62.3796 
 176   0.0000       2.296247        62.4841 
 177   0.0000       2.308886        62.8280 
 178   0.0000       2.315473        63.0072 
 179   0.0000       2.340629        63.6918 
 180   0.0000       2.345567        63.8261 
 181   0.0000       2.362348        64.2827 
 182   0.0000       2.368735        64.4566 
 183   0.0000       2.386276        64.9339 
 184   0.0000       2.392521        65.1038 
 185   0.0000       2.401447        65.3467 
 186   0.0000       2.421568        65.8942 
 187   0.0000       2.422636        65.9233 
 188   0.0000       2.428566        66.0846 
 189   0.0000       2.452202        66.7278 
 190   0.0000       2.462830        67.0170 
 191   0.0000       2.471130        67.2429 
 192   0.0000       2.479625        67.4740 
 193   0.0000       2.507055        68.2204 
 194   0.0000       2.511984        68.3546 
 195   0.0000       2.523338        68.6635 
 196   0.0000       2.551281        69.4239 
 197   0.0000       2.581456        70.2450 
 198   0.0000       2.600303        70.7578 
 199   0.0000       2.615182        71.1627 
 200   0.0000       2.641418        71.8766 
 201   0.0000       2.707897        73.6856 
 202   0.0000       2.758217        75.0549 
 203   0.0000       2.775840        75.5345 
 204   0.0000       2.794711        76.0480 
 205   0.0000       2.799551        76.1796 
 206   0.0000       2.813691        76.5644 
 207   0.0000       2.848931        77.5234 
 208   0.0000       2.878136        78.3181 
 209   0.0000       2.902015        78.9678 
 210   0.0000       3.014951        82.0410 
 211   0.0000       3.121173        84.9314 
 212   0.0000       3.125600        85.0519 
 213   0.0000       3.214943        87.4831 
 214   0.0000       3.228873        87.8621 
 215   0.0000       3.293755        89.6276 
 216   0.0000       3.379521        91.9614 
 217   0.0000       3.386617        92.1545 
 218   0.0000       3.547416        96.5301 
 219   0.0000       3.570378        97.1549 
 220   0.0000       3.577071        97.3370 
 221   0.0000       3.708337       100.9090 
 222   0.0000       3.762441       102.3812 
 223   0.0000       3.774278       102.7033 
 224   0.0000       3.914436       106.5172 
 225   0.0000       4.179202       113.7219 
 226   0.0000       4.194109       114.1275 
 227   0.0000       4.393789       119.5611 
 228   0.0000       4.439822       120.8137 
 229   0.0000       4.834573       131.5554 
 230   0.0000       4.836908       131.6190 
 231   0.0000       4.938552       134.3848 
 232   0.0000       4.949970       134.6955 
 233   0.0000       5.077823       138.1746 
 234   0.0000       5.102080       138.8346 
 235   0.0000       5.105539       138.9288 
 236   0.0000       5.302231       144.2810 
 237   0.0000       5.506242       149.8325 
 238   0.0000       5.513340       150.0256 
 239   0.0000       5.841963       158.9679 
 240   0.0000      11.027685       300.0786 
 241   0.0000      11.068641       301.1930 
 242   0.0000      11.089055       301.7485 
 243   0.0000      11.102412       302.1120 
 244   0.0000      11.131102       302.8927 
 245   0.0000      11.136247       303.0327 
 246   0.0000      11.163033       303.7616 
 247   0.0000      11.186633       304.4038 
 248   0.0000      11.579533       315.0951 
 249   0.0000      22.651864       616.3886 
 250   0.0000      25.108152       683.2275 
 251   0.0000      25.382770       690.7003 
 252   0.0000      25.790039       701.7826 
 253   0.0000      32.359176       880.5380 
 254   0.0000      35.580760       968.2017 
 255   0.0000      35.807721       974.3776 
 256   0.0000      35.902143       976.9470 
 257   0.0000      36.560975       994.8747 
 258   0.0000     123.685935      3365.6654 

                    ********************************
                    * MULLIKEN POPULATION ANALYSIS *
                    ********************************

-----------------------
MULLIKEN ATOMIC CHARGES
-----------------------
   0 C :   -0.252997
   1 N :   -0.307035
   2 H :    0.157961
   3 H :    0.170132
   4 H :    0.156515
   5 H :    0.288238
   6 H :    0.272607
   7 H :    0.278600
   8 Pb:    0.757373
   9 Cl:   -0.343518
  10 Cl:   -0.608900
  11 Cl:   -0.568976
Sum of atomic charges:   -0.0000000

--------------------------------
MULLIKEN REDUCED ORBITAL CHARGES
--------------------------------
  0 C s       :     3.276428  s :     3.276428
      pz      :     0.971235  p :     2.902261
      px      :     0.997424
      py      :     0.933601
      dz2     :     0.006637  d :     0.068283
      dxz     :     0.018111
      dyz     :     0.017893
      dx2y2   :     0.007316
      dxy     :     0.018325
      f0      :     0.000357  f :     0.006026
      f+1     :     0.000504
      f-1     :     0.000738
      f+2     :     0.000716
      f-2     :     0.002637
      f+3     :     0.000510
      f-3     :     0.000565
  1 N s       :     3.416302  s :     3.416302
      pz      :     1.290871  p :     3.841437
      px      :     1.273164
      py      :     1.277402
      dz2     :     0.005301  d :     0.047120
      dxz     :     0.012827
      dyz     :     0.011009
      dx2y2   :     0.005617
      dxy     :     0.012366
      f0      :     0.000119  f :     0.002175
      f+1     :     0.000166
      f-1     :     0.000198
      f+2     :     0.000212
      f-2     :     0.001149
      f+3     :     0.000152
      f-3     :     0.000180
  2 H s       :     0.820304  s :     0.820304
      pz      :     0.008412  p :     0.021735
      px      :     0.007710
      py      :     0.005613
  3 H s       :     0.807927  s :     0.807927
      pz      :     0.006999  p :     0.021941
      px      :     0.007419
      py      :     0.007524
  4 H s       :     0.821781  s :     0.821781
      pz      :     0.006698  p :     0.021704
      px      :     0.007353
      py      :     0.007653
  5 H s       :     0.667572  s :     0.667572
      pz      :     0.010182  p :     0.044190
      px      :     0.015712
      py      :     0.018296
  6 H s       :     0.688981  s :     0.688981
      pz      :     0.013164  p :     0.038412
      px      :     0.010368
      py      :     0.014880
  7 H s       :     0.683422  s :     0.683422
      pz      :     0.015042  p :     0.037978
      px      :     0.015344
      py      :     0.007592
  8 Pbs       :     3.838602  s :     3.838602
      pz      :     2.345730  p :     7.309583
      px      :     2.561295
      py      :     2.402558
      dz2     :     2.012035  d :     9.995249
      dxz     :     1.997268
      dyz     :     2.019028
      dx2y2   :     1.967912
      dxy     :     1.999006
      f0      :     0.020647  f :     0.099193
      f+1     :     0.011490
      f-1     :     0.007283
      f+2     :     0.015636
      f-2     :     0.002139
      f+3     :     0.016191
      f-3     :     0.025807
  9 Cls       :     5.879757  s :     5.879757
      pz      :     3.859157  p :    11.335870
      px      :     3.623231
      py      :     3.853482
      dz2     :     0.011864  d :     0.108292
      dxz     :     0.030092
      dyz     :     0.003079
      dx2y2   :     0.031168
      dxy     :     0.032089
      f0      :     0.002126  f :     0.019599
      f+1     :     0.003000
      f-1     :     0.000388
      f+2     :     0.003540
      f-2     :     0.000660
      f+3     :     0.004611
      f-3     :     0.005273
 10 Cls       :     5.962557  s :     5.962557
      pz      :     3.941210  p :    11.635161
      px      :     3.893387
      py      :     3.800564
      dz2     :     0.001714  d :     0.010833
      dxz     :     0.001567
      dyz     :     0.000892
      dx2y2   :     0.003566
      dxy     :     0.003095
      f0      :     0.000032  f :     0.000349
      f+1     :     0.000026
      f-1     :     0.000067
      f+2     :     0.000025
      f-2     :     0.000029
      f+3     :     0.000106
      f-3     :     0.000064
 11 Cls       :     5.956187  s :     5.956187
      pz      :     3.765487  p :    11.595881
      px      :     3.929100
      py      :     3.901294
      dz2     :     0.007932  d :     0.016319
      dxz     :     0.002979
      dyz     :     0.002161
      dx2y2   :     0.000741
      dxy     :     0.002506
      f0      :     0.000256  f :     0.000589
      f+1     :     0.000126
      f-1     :     0.000074
      f+2     :     0.000017
      f-2     :     0.000031
      f+3     :     0.000064
      f-3     :     0.000022


                     *******************************
                     * LOEWDIN POPULATION ANALYSIS *
                     *******************************

----------------------
LOEWDIN ATOMIC CHARGES
----------------------
   0 C :   -0.271600
   1 N :    0.086941
   2 H :    0.125320
   3 H :    0.130347
   4 H :    0.123883
   5 H :    0.153719
   6 H :    0.167999
   7 H :    0.175138
   8 Pb:   -0.359273
   9 Cl:    0.367435
  10 Cl:   -0.405611
  11 Cl:   -0.294297

-------------------------------
LOEWDIN REDUCED ORBITAL CHARGES
-------------------------------
  0 C s       :     2.854034  s :     2.854034
      pz      :     1.031130  p :     3.080279
      px      :     1.043748
      py      :     1.005401
      dz2     :     0.029658  d :     0.300410
      dxz     :     0.078174
      dyz     :     0.080384
      dx2y2   :     0.030322
      dxy     :     0.081871
      f0      :     0.005345  f :     0.036878
      f+1     :     0.003986
      f-1     :     0.005821
      f+2     :     0.004183
      f-2     :     0.007025
      f+3     :     0.004907
      f-3     :     0.005610
  1 N s       :     3.000540  s :     3.000540
      pz      :     1.249091  p :     3.745579
      px      :     1.248054
      py      :     1.248434
      dz2     :     0.017021  d :     0.157549
      dxz     :     0.041217
      dyz     :     0.039803
      dx2y2   :     0.018638
      dxy     :     0.040870
      f0      :     0.001437  f :     0.009391
      f+1     :     0.001113
      f-1     :     0.001406
      f+2     :     0.001019
      f-2     :     0.001654
      f+3     :     0.001239
      f-3     :     0.001523
  2 H s       :     0.812379  s :     0.812379
      pz      :     0.023103  p :     0.062301
      px      :     0.021582
      py      :     0.017617
  3 H s       :     0.807046  s :     0.807046
      pz      :     0.019524  p :     0.062607
      px      :     0.022479
      py      :     0.020604
  4 H s       :     0.813860  s :     0.813860
      pz      :     0.020628  p :     0.062257
      px      :     0.020688
      py      :     0.020941
  5 H s       :     0.710326  s :     0.710326
      pz      :     0.034535  p :     0.135955
      px      :     0.047601
      py      :     0.053819
  6 H s       :     0.720699  s :     0.720699
      pz      :     0.037135  p :     0.111302
      px      :     0.032544
      py      :     0.041623
  7 H s       :     0.709319  s :     0.709319
      pz      :     0.044665  p :     0.115543
      px      :     0.044554
      py      :     0.026324
  8 Pbs       :     3.469709  s :     3.469709
      pz      :     2.487579  p :     7.946362
      px      :     2.926269
      py      :     2.532514
      dz2     :     2.150338  d :    10.575408
      dxz     :     2.118537
      dyz     :     2.055129
      dx2y2   :     2.116831
      dxy     :     2.134574
      f0      :     0.074061  f :     0.367794
      f+1     :     0.042014
      f-1     :     0.019186
      f+2     :     0.062493
      f-2     :     0.005806
      f+3     :     0.065742
      f-3     :     0.098494
  9 Cls       :     5.375809  s :     5.375809
      pz      :     3.619840  p :    10.929710
      px      :     3.696742
      py      :     3.613128
      dz2     :     0.035700  d :     0.248438
      dxz     :     0.052477
      dyz     :     0.005231
      dx2y2   :     0.096071
      dxy     :     0.058959
      f0      :     0.006896  f :     0.078608
      f+1     :     0.015437
      f-1     :     0.001229
      f+2     :     0.011490
      f-2     :     0.001658
      f+3     :     0.024351
      f-3     :     0.017547
 10 Cls       :     5.834614  s :     5.834614
      pz      :     3.912537  p :    11.553453
      px      :     3.868237
      py      :     3.772678
      dz2     :     0.002976  d :     0.016886
      dxz     :     0.001752
      dyz     :     0.000904
      dx2y2   :     0.007313
      dxy     :     0.003941
      f0      :     0.000034  f :     0.000658
      f+1     :     0.000038
      f-1     :     0.000143
      f+2     :     0.000050
      f-2     :     0.000032
      f+3     :     0.000210
      f-3     :     0.000152
 11 Cls       :     5.785549  s :     5.785549
      pz      :     3.732143  p :    11.480137
      px      :     3.889705
      py      :     3.858289
      dz2     :     0.016965  d :     0.027322
      dxz     :     0.003028
      dyz     :     0.002694
      dx2y2   :     0.000900
      dxy     :     0.003735
      f0      :     0.000705  f :     0.001289
      f+1     :     0.000192
      f-1     :     0.000159
      f+2     :     0.000019
      f-2     :     0.000041
      f+3     :     0.000142
      f-3     :     0.000032


                      *****************************
                      * MAYER POPULATION ANALYSIS *
                      *****************************

  NA   - Mulliken gross atomic population
  ZA   - Total nuclear charge
  QA   - Mulliken gross atomic charge
  VA   - Mayer's total valence
  BVA  - Mayer's bonded valence
  FA   - Mayer's free valence

  ATOM       NA         ZA         QA         VA         BVA        FA
  0 C      6.2530     6.0000    -0.2530     3.8251     3.8251     0.0000
  1 N      7.3070     7.0000    -0.3070     3.3219     3.3219     0.0000
  2 H      0.8420     1.0000     0.1580     0.9628     0.9628    -0.0000
  3 H      0.8299     1.0000     0.1701     0.9618     0.9618    -0.0000
  4 H      0.8435     1.0000     0.1565     0.9609     0.9609     0.0000
  5 H      0.7118     1.0000     0.2882     1.0028     1.0028     0.0000
  6 H      0.7274     1.0000     0.2726     0.9448     0.9448    -0.0000
  7 H      0.7214     1.0000     0.2786     1.0058     1.0058    -0.0000
  8 Pb    21.2426    22.0000     0.7574     2.2908     2.2908    -0.0000
  9 Cl    17.3435    17.0000    -0.3435     1.3020     1.3020     0.0000
 10 Cl    17.6089    17.0000    -0.6089     0.6862     0.6862    -0.0000
 11 Cl    17.5690    17.0000    -0.5690     0.7499     0.7499    -0.0000

  Mayer bond orders larger than 0.1
B(  0-C ,  1-N ) :   0.9005 B(  0-C ,  2-H ) :   0.9695 B(  0-C ,  3-H ) :   0.9672 
B(  0-C ,  4-H ) :   0.9693 B(  1-N ,  5-H ) :   0.7806 B(  1-N ,  6-H ) :   0.8718 
B(  1-N ,  7-H ) :   0.8180 B(  5-H , 11-Cl) :   0.2220 B(  7-H , 10-Cl) :   0.1836 
B(  8-Pb,  9-Cl) :   1.2204 B(  8-Pb, 10-Cl) :   0.5110 B(  8-Pb, 11-Cl) :   0.5351 


-------
TIMINGS
-------

Total SCF time: 0 days 0 hours 4 min 47 sec 

Total time                  ....     287.064 sec
Sum of individual times     ....     254.011 sec  ( 88.5%)

Fock matrix formation       ....     247.645 sec  ( 86.3%)
  Coulomb formation         ....     202.165 sec  ( 81.6% of F)
  Split-RI-J                ....      17.526 sec  (  7.1% of F)
  Chain of spheres X        ....     216.117 sec  ( 87.3% of F)
  COS-X 1 center corr.      ....       0.000 sec  (  0.0% of F)
  XC integration            ....      45.549 sec  ( 18.4% of F)
    Basis function eval.    ....      16.750 sec  ( 36.8% of XC)
    Density eval.           ....      11.616 sec  ( 25.5% of XC)
    XC-Functional eval.     ....       3.029 sec  (  6.7% of XC)
    XC-Potential eval.      ....      12.788 sec  ( 28.1% of XC)
Diagonalization             ....       0.344 sec  (  0.1%)
Density matrix formation    ....       0.039 sec  (  0.0%)
Population analysis         ....       0.074 sec  (  0.0%)
Initial guess               ....       0.145 sec  (  0.1%)
Orbital Transformation      ....       0.000 sec  (  0.0%)
Orbital Orthonormalization  ....       0.141 sec  (  0.0%)
DIIS solution               ....       0.110 sec  (  0.0%)
SOSCF solution              ....       0.150 sec  (  0.1%)
Grid generation             ....       5.504 sec  (  1.9%)

------------------------------------------------------------------------------
                              ORCA MP2 CALCULATION
------------------------------------------------------------------------------


----------------------
RI-MP2 ENERGY+GRADIENT
----------------------
Dimension of the basis                    ...  259
Memory devoted to MP2                     ... 1000 MB   
Data format for buffers                   ... DOUBLE
Compression type for matrix containers    ... UNCOMPRESSED
Overall scaling of the MP2 energy         ...   2.700e-01 Eh
Calculating two index integrals           ... done (    0.022 sec)
Cholesky decomposition of the V-matrix    ... done
Cholesky decomposition of V**-1           ... done (    0.040 sec)

-----------------
RI-TRANSFORMATION (AUX index driven)
-----------------

Dimension of the orbital-basis         ... 259
Dimension of the aux-basis             ... 493
Transformation of internal MOs         ...    0-  45
Transformation of internal/external MOs...    0-  45 to   46- 258
Number Format for Storage              ... Double (8 Byte)
Integral mode                          ... Direct

First Phase: integral generation and transformation of MO indices
  Aux angular momentum 0               ... done (    0.679 sec)
  Aux angular momentum 1               ... done (    0.536 sec)
  Aux angular momentum 2               ... done (    0.641 sec)
  Aux angular momentum 3               ... done (    0.373 sec)
  Aux angular momentum 4               ... done (    0.338 sec)
Closing buffer VIJ ( 0.00 GB; CompressionRatio= 1.95)
Closing buffer VIA ( 0.04 GB; CompressionRatio= 1.00)
  Phase 1 completed in     2.716 sec
Second Phase: sorting and transformation of aux index

IJ-Transformation
Memory available                       ... 990 MB 
Max. # MO pairs treated in a batch     ... 46    
# of internal orbitals                 ... 46
# batches for internal orbitals        ... 1
Closing buffer IJV ( 0.00 GB; CompressionRatio= 1.00)
(ij|v) transformation done in     0.173 sec

IA-Transformation
Memory available                       ... 990 MB 
Max. # MO pairs treated in a batch     ... 46    
# of internal orbitals                 ... 46
# batches for internal orbitals        ... 1
Closing buffer IAV ( 0.04 GB; CompressionRatio= 1.00)
(ia|v) transformation done in     0.673 sec

  Phase 2 completed in     0.878 sec
RI-Integral transformation completed in     3.595 sec
Opening buffers                              ... done

Starting loop over batches of integrals:

Operator 0  - window                       ... (  0- 45)x( 46-258)
Operator 0  - Memory available             ...  1000 MB
Operator 0  - Memory needed per MO         ...   1.6 MB
Operator 0  - Number of orbitals per batch ... 46
Operator 0  - Number of batches            ... 1

OPERATOR  0   PASS   0:  MOs     0 ...   45
  Reading integrals       ... ok
  Internal MO   2
  Internal MO   5
  Internal MO   8
  Internal MO  11
  Internal MO  14
  Internal MO  17
  Internal MO  20
  Internal MO  23
  Internal MO  26
  Internal MO  29
  Internal MO  32
  Internal MO  35
  Internal MO  38
  Internal MO  41
  Internal MO  44
Closing buffer GIPV ( 0.04 GB; CompressionRatio= 1.00)
Time spent in pair loops =    70.938 sec

-----------------------------------------------
 RI-MP2 CORRELATION ENERGY:     -0.580960491 Eh
-----------------------------------------------


---------------------
MP2 DENSITY FORMATION
---------------------

Completing the external part of the density      ... done
Storing the unrelaxed density                    ... done

Calculating the xc-kernel                        ... done
Calculating G(D)                                 ... done
Completing the Lagrangian                        ... done
Solving the Z-vector equations                   ... 

------------------------------------------------------------------------------
                           ORCA CP-SCF CALCULATION
------------------------------------------------------------------------------

Input orbitals are from        ... PbMACl3_mp2_4.orca.gbw
Input Perturbation             ... PbMACl3_mp2_4.orca.pin.tmp
Wavefunction output            ... PbMACl3_mp2_4.orca.pout.tmp
Perturbation mode              ... Real perturbation
Solver                         ... DIIS
   MaxDIIS                     ... 20
   Levelshift                  ...    3.000e-01 Eh
Max. number of iterations      ... 128
Convergence tolerance          ... 1.000e-08
Integral handling              ... Direct
COSX GridX                     ... 1
Number of perturbations        ... 1
Number of operators            ... 1
Orbital ranges used for CP-SCF:
 Operator 0:  Orbitals   0... 45  to  46...258
DFT calculation                         ... on
Exchange functional (SCF)               ... B88
Exchange functional (CP-SCF)            ... B88
   X-Alpha parameter    XAlpha (SCF)    ...  0.666667
   X-Alpha parameter    XAlpha (CP-SCF) ...  0.666667
   Becke's b parameter  XBeta (SCF)     ...  0.004200
   Becke's b parameter  XBeta (CP-SCF)  ...  0.004200
Correlation functional (SCF)            ... LYP
Correlation functional (CP-SCF)         ... LYP
 LDA part of GGA corr.  LDAOpt (SCF)    ... VWN-3
 LDA part of GGA corr.  LDAOpt (CP-SCF) ... VWN-3
Hybrid DFT                              ... on
   Exchange mixing (SCF)                ...  0.530
   Exchange mixing (CP-SCF)             ...  0.530
   GGA exch. scaling(SCF)               ...  0.470
   GGA exch. scaling (CP-SCF)           ...  0.470
   GGA corr. scaling (SCF)              ...  0.730
   GGA corr. scaling (CP-SCF)           ...  0.730
The RIJCOSX approximation is active
Variables per vector in CP-SCF ... 9798
Number of vectors sought       ... 1
Calculating the xc-kernel      ... done

Solving the CP-SCF equations by a DIIS algorithm

-----------------
CP-SCF ITERATIONS
-----------------
  Iteration   0: MaxR=  0.081042324
  Iteration   1: MaxR=  0.035762011
  Iteration   2: MaxR=  0.010408301
  Iteration   3: MaxR=  0.004206434
  Iteration   4: MaxR=  0.001819888
  Iteration   5: MaxR=  0.000700811
  Iteration   6: MaxR=  0.000340512
  Iteration   7: MaxR=  0.000118706
  Iteration   8: MaxR=  0.000053642
  Iteration   9: MaxR=  0.000018895
  Iteration  10: MaxR=  0.000008458
  Iteration  11: MaxR=  0.000002935
  Iteration  12: MaxR=  0.000001091
  Iteration  13: MaxR=  0.000000358
  Iteration  14: MaxR=  0.000000133
  Iteration  15: MaxR=  0.000000050
  Iteration  16: MaxR=  0.000000019
  Iteration  17: MaxR=  0.000000007
                              *** THE CP-SCF HAS CONVERGED *** 
done
Finalizing the relaxed density                   ... done
Transforming P to the AO basis                   ... done
Storing the relaxed density                      ... done

------------------------------------
ENERGY WEIGHTED DENSITY FINALIZATION
------------------------------------

Gathering the parts of the W-matrix              ... done
Forming the Z-density                            ... done
Transforming Z to the AO basis                   ... done
Calculating G(Z)                                 ... done
Finalizing the W-matrix                          ... done
Transforming W to the AO basis and storing       ... done
Entering the RIJONX and RIJCOSX sections
Starting the three-index derivative integrals:
Operator 0  - Memory available             ...  1000 MB
Operator 0  - Memory needed per MO         ...   1.0 MB
Operator 0  - Number of orbitals per batch ... 46
Operator 0  - Number of batches            ... 1

OPERATOR  0   PASS   0:  MOs     0 ...   45

----------------------------------
MP2 DERIVATIVE INTEGRAL GENERATION
----------------------------------


Input Correlated Electron Density   ... PbMACl3_mp2_4.orca.pmp2re
Input Energy Weighted Density       ... PbMACl3_mp2_4.orca.wmp2.tmp
Input SCF Electron Density          ... PbMACl3_mp2_4.orca.scfp.tmp

One-Electron Terms    ...
  ECP gradient                                           ... One-Electron Terms done

-----------------------------------------------------------
MP2 COSX Grid Generation
-----------------------------------------------------------

General Integration Accuracy     IntAcc      ...  4.340
Radial Grid Type                 RadialGrid  ... Gauss-Chebyshev
Angular Grid (max. acc.)         AngularGrid ... Lebedev-302
Angular grid pruning method      GridPruning ... 3 (G Style)
Weight generation scheme         WeightScheme... Becke
Basis function cutoff            BFCut       ...    1.0000e-11
Integration weight cutoff        WCut        ...    1.0000e-14
Grids for H and He will be reduced by one unit

# of grid points (after initial pruning)     ...  57718 (   0.0 sec)
# of grid points (after weights+screening)   ...  54377 (   0.2 sec)
nearest neighbour list constructed           ...    0.0 sec
Grid point re-assignment to atoms done       ...    0.0 sec
Grid point division into batches done        ...    0.3 sec
Reduced shell lists constructed in    1.5 sec

Total number of grid points                  ...    54377
Total number of batches                      ...      857
Average number of points per batch           ...       63
Average number of grid points per atom       ...     4531
Average number of shells per batch           ...    56.79 (56.23%)
Average number of basis functions per batch  ...   150.95 (58.28%)
Average number of large shells per batch     ...    43.00 (75.71%)
Average number of large basis fcns per batch ...   111.35 (73.77%)
Maximum spatial batch extension              ...  35.78, 35.78, 30.33 au
Average spatial batch extension              ...   3.01,  3.10,  3.06 au

Overlap Fitting                  UseSFitting ... on
Two electron COSX terms .... 
Integration Timings:
Total Time                  =   125.9 sec
Basis fcn evaluation        =     0.6 sec
Density evaluation          =     1.6 sec
Integral evaluation         =   120.3 sec
K(P) evaluation             =     1.3 sec
                          .... COSX two electron terms done
COSX two-electron contribution to the gradient
     0:    -0.020584    -0.024184    -0.022378
     1:     0.051148     0.063541     0.069891
     2:     0.100984    -0.081310     0.107565
     3:    -0.105548     0.099269     0.090604
     4:     0.095438     0.098473    -0.096652
     5:    -0.101004    -0.099787     0.091141
     6:     0.106247    -0.124115    -0.114153
     7:    -0.110188     0.081002    -0.120354
     8:    -0.008607    -0.041700    -0.038031
     9:     0.047412    -0.003562    -0.006973
    10:    -0.034231     0.041760    -0.014401
    11:    -0.021133    -0.010195     0.054221
Exchange-correlation gradient    ... done
Dispersion correction            ... 
Entering the calculation of the dispersion correction...

Checking the input atom types...

Done
done

                *********************************************
                * UNRELAXED MP2 DENSITY POPULATION ANALYSIS *
                *********************************************

------------------------------------------------------------------------------
                           ORCA POPULATION ANALYSIS
------------------------------------------------------------------------------
Input electron density              ... PbMACl3_mp2_4.orca.pmp2ur
BaseName (.gbw .S,...)              ... PbMACl3_mp2_4.orca

                    ********************************
                    * MULLIKEN POPULATION ANALYSIS *
                    ********************************

-----------------------
MULLIKEN ATOMIC CHARGES
-----------------------
   0 C :   -0.257414
   1 N :   -0.305841
   2 H :    0.158964
   3 H :    0.171153
   4 H :    0.157538
   5 H :    0.286729
   6 H :    0.272077
   7 H :    0.277171
   8 Pb:    0.745603
   9 Cl:   -0.340517
  10 Cl:   -0.602522
  11 Cl:   -0.562941
Sum of atomic charges:   -0.0000000

--------------------------------
MULLIKEN REDUCED ORBITAL CHARGES
--------------------------------
  0 C s       :     3.275189  s :     3.275189
      pz      :     0.969855  p :     2.898243
      px      :     0.995888
      py      :     0.932500
      dz2     :     0.008658  d :     0.076817
      dxz     :     0.019667
      dyz     :     0.019356
      dx2y2   :     0.009309
      dxy     :     0.019825
      f0      :     0.000514  f :     0.007165
      f+1     :     0.000678
      f-1     :     0.000908
      f+2     :     0.000898
      f-2     :     0.002760
      f+3     :     0.000675
      f-3     :     0.000731
  1 N s       :     3.413865  s :     3.413865
      pz      :     1.287234  p :     3.830825
      px      :     1.269798
      py      :     1.273792
      dz2     :     0.007578  d :     0.057941
      dxz     :     0.014901
      dyz     :     0.013118
      dx2y2   :     0.007898
      dxy     :     0.014446
      f0      :     0.000263  f :     0.003210
      f+1     :     0.000315
      f-1     :     0.000351
      f+2     :     0.000367
      f-2     :     0.001287
      f+3     :     0.000299
      f-3     :     0.000329
  2 H s       :     0.818294  s :     0.818294
      pz      :     0.008731  p :     0.022742
      px      :     0.008039
      py      :     0.005972
  3 H s       :     0.805920  s :     0.805920
      pz      :     0.007326  p :     0.022927
      px      :     0.007752
      py      :     0.007849
  4 H s       :     0.819746  s :     0.819746
      pz      :     0.007047  p :     0.022716
      px      :     0.007687
      py      :     0.007982
  5 H s       :     0.668500  s :     0.668500
      pz      :     0.010382  p :     0.044771
      px      :     0.015894
      py      :     0.018495
  6 H s       :     0.688850  s :     0.688850
      pz      :     0.013392  p :     0.039072
      px      :     0.010583
      py      :     0.015097
  7 H s       :     0.684295  s :     0.684295
      pz      :     0.015207  p :     0.038534
      px      :     0.015511
      py      :     0.007817
  8 Pbs       :     3.823490  s :     3.823490
      pz      :     2.354529  p :     7.327737
      px      :     2.562387
      py      :     2.410821
      dz2     :     2.006459  d :     9.968842
      dxz     :     1.992189
      dyz     :     2.013678
      dx2y2   :     1.962635
      dxy     :     1.993881
      f0      :     0.025604  f :     0.134327
      f+1     :     0.016606
      f-1     :     0.012463
      f+2     :     0.020555
      f-2     :     0.007354
      f+3     :     0.021111
      f-3     :     0.030635
  9 Cls       :     5.875361  s :     5.875361
      pz      :     3.844561  p :    11.295154
      px      :     3.611706
      py      :     3.838887
      dz2     :     0.019661  d :     0.147082
      dxz     :     0.037855
      dyz     :     0.011232
      dx2y2   :     0.038442
      dxy     :     0.039891
      f0      :     0.002564  f :     0.022920
      f+1     :     0.003494
      f-1     :     0.000793
      f+2     :     0.004016
      f-2     :     0.001167
      f+3     :     0.005103
      f-3     :     0.005783
 10 Cls       :     5.958023  s :     5.958023
      pz      :     3.927028  p :    11.591791
      px      :     3.879102
      py      :     3.785660
      dz2     :     0.009460  d :     0.049706
      dxz     :     0.009332
      dyz     :     0.008693
      dx2y2   :     0.011356
      dxy     :     0.010864
      f0      :     0.000407  f :     0.003002
      f+1     :     0.000401
      f-1     :     0.000444
      f+2     :     0.000405
      f-2     :     0.000407
      f+3     :     0.000490
      f-3     :     0.000449
 11 Cls       :     5.951702  s :     5.951702
      pz      :     3.750819  p :    11.552373
      px      :     3.914760
      py      :     3.886793
      dz2     :     0.015754  d :     0.055557
      dxz     :     0.010808
      dyz     :     0.010079
      dx2y2   :     0.008567
      dxy     :     0.010350
      f0      :     0.000653  f :     0.003309
      f+1     :     0.000523
      f-1     :     0.000473
      f+2     :     0.000399
      f-2     :     0.000417
      f+3     :     0.000445
      f-3     :     0.000400


                     *******************************
                     * LOEWDIN POPULATION ANALYSIS *
                     *******************************

----------------------
LOEWDIN ATOMIC CHARGES
----------------------
   0 C :   -0.274584
   1 N :    0.086037
   2 H :    0.126054
   3 H :    0.131105
   4 H :    0.124616
   5 H :    0.153032
   6 H :    0.167660
   7 H :    0.174394
   8 Pb:   -0.362340
   9 Cl:    0.363799
  10 Cl:   -0.400114
  11 Cl:   -0.289659

-------------------------------
LOEWDIN REDUCED ORBITAL CHARGES
-------------------------------
  0 C s       :     2.853417  s :     2.853417
      pz      :     1.028755  p :     3.073250
      px      :     1.041299
      py      :     1.003196
      dz2     :     0.031443  d :     0.309280
      dxz     :     0.079977
      dyz     :     0.082134
      dx2y2   :     0.032087
      dxy     :     0.083639
      f0      :     0.005572  f :     0.038637
      f+1     :     0.004200
      f-1     :     0.006029
      f+2     :     0.004397
      f-2     :     0.007482
      f+3     :     0.005135
      f-3     :     0.005821
  1 N s       :     3.000035  s :     3.000035
      pz      :     1.245361  p :     3.734292
      px      :     1.244368
      py      :     1.244563
      dz2     :     0.019029  d :     0.168908
      dxz     :     0.043655
      dyz     :     0.042261
      dx2y2   :     0.020650
      dxy     :     0.043313
      f0      :     0.001617  f :     0.010729
      f+1     :     0.001287
      f-1     :     0.001578
      f+2     :     0.001194
      f-2     :     0.001938
      f+3     :     0.001420
      f-3     :     0.001695
  2 H s       :     0.809816  s :     0.809816
      pz      :     0.023743  p :     0.064131
      px      :     0.022200
      py      :     0.018188
  3 H s       :     0.804494  s :     0.804494
      pz      :     0.020088  p :     0.064401
      px      :     0.023107
      py      :     0.021206
  4 H s       :     0.811286  s :     0.811286
      pz      :     0.021250  p :     0.064097
      px      :     0.021290
      py      :     0.021557
  5 H s       :     0.709747  s :     0.709747
      pz      :     0.034956  p :     0.137221
      px      :     0.048009
      py      :     0.054256
  6 H s       :     0.719528  s :     0.719528
      pz      :     0.037629  p :     0.112812
      px      :     0.033034
      py      :     0.042148
  7 H s       :     0.708684  s :     0.708684
      pz      :     0.045176  p :     0.116922
      px      :     0.045026
      py      :     0.026720
  8 Pbs       :     3.457990  s :     3.457990
      pz      :     2.494618  p :     7.956073
      px      :     2.922397
      py      :     2.539058
      dz2     :     2.144355  d :    10.545986
      dxz     :     2.112202
      dyz     :     2.049728
      dx2y2   :     2.111678
      dxy     :     2.128023
      f0      :     0.078634  f :     0.402291
      f+1     :     0.047327
      f-1     :     0.024359
      f+2     :     0.067159
      f-2     :     0.011150
      f+3     :     0.070764
      f-3     :     0.102898
  9 Cls       :     5.372674  s :     5.372674
      pz      :     3.607631  p :    10.893202
      px      :     3.684618
      py      :     3.600953
      dz2     :     0.043589  d :     0.288111
      dxz     :     0.060440
      dyz     :     0.013202
      dx2y2   :     0.103957
      dxy     :     0.066924
      f0      :     0.007376  f :     0.082214
      f+1     :     0.015961
      f-1     :     0.001642
      f+2     :     0.012025
      f-2     :     0.002173
      f+3     :     0.024895
      f-3     :     0.018143
 10 Cls       :     5.830061  s :     5.830061
      pz      :     3.898416  p :    11.510788
      px      :     3.854074
      py      :     3.758299
      dz2     :     0.010757  d :     0.055928
      dxz     :     0.009542
      dyz     :     0.008707
      dx2y2   :     0.015128
      dxy     :     0.011793
      f0      :     0.000411  f :     0.003336
      f+1     :     0.000415
      f-1     :     0.000524
      f+2     :     0.000434
      f-2     :     0.000412
      f+3     :     0.000601
      f-3     :     0.000540
 11 Cls       :     5.781135  s :     5.781135
      pz      :     3.718216  p :    11.437785
      px      :     3.875548
      py      :     3.844022
      dz2     :     0.024905  d :     0.066687
      dxz     :     0.010862
      dyz     :     0.010567
      dx2y2   :     0.008760
      dxy     :     0.011593
      f0      :     0.001121  f :     0.004051
      f+1     :     0.000597
      f-1     :     0.000562
      f+2     :     0.000404
      f-2     :     0.000429
      f+3     :     0.000526
      f-3     :     0.000412


                      *****************************
                      * MAYER POPULATION ANALYSIS *
                      *****************************

  NA   - Mulliken gross atomic population
  ZA   - Total nuclear charge
  QA   - Mulliken gross atomic charge
  VA   - Mayer's total valence
  BVA  - Mayer's bonded valence
  FA   - Mayer's free valence

  ATOM       NA         ZA         QA         VA         BVA        FA
  0 C      6.2574     6.0000    -0.2574     3.8706     3.7566     0.1140
  1 N      7.3058     7.0000    -0.3058     3.3951     3.2525     0.1426
  2 H      0.8410     1.0000     0.1590     0.9654     0.9470     0.0184
  3 H      0.8288     1.0000     0.1712     0.9643     0.9463     0.0180
  4 H      0.8425     1.0000     0.1575     0.9635     0.9451     0.0184
  5 H      0.7133     1.0000     0.2867     1.0054     0.9842     0.0212
  6 H      0.7279     1.0000     0.2721     0.9472     0.9268     0.0204
  7 H      0.7228     1.0000     0.2772     1.0087     0.9871     0.0216
  8 Pb    21.2544    22.0000     0.7456     2.5876     2.2306     0.3570
  9 Cl    17.3405    17.0000    -0.3405     1.5142     1.2693     0.2449
 10 Cl    17.6025    17.0000    -0.6025     0.9277     0.6656     0.2621
 11 Cl    17.5629    17.0000    -0.5629     0.9881     0.7279     0.2602

  Mayer bond orders larger than 0.1
B(  0-C ,  1-N ) :   0.8782 B(  0-C ,  2-H ) :   0.9544 B(  0-C ,  3-H ) :   0.9522 
B(  0-C ,  4-H ) :   0.9542 B(  1-N ,  5-H ) :   0.7665 B(  1-N ,  6-H ) :   0.8556 
B(  1-N ,  7-H ) :   0.8032 B(  5-H , 11-Cl) :   0.2179 B(  7-H , 10-Cl) :   0.1801 
B(  8-Pb,  9-Cl) :   1.1914 B(  8-Pb, 10-Cl) :   0.4958 B(  8-Pb, 11-Cl) :   0.5196 



                *******************************************
                * RELAXED MP2 DENSITY POPULATION ANALYSIS *
                *******************************************

------------------------------------------------------------------------------
                           ORCA POPULATION ANALYSIS
------------------------------------------------------------------------------
Input electron density              ... PbMACl3_mp2_4.orca.pmp2re
BaseName (.gbw .S,...)              ... PbMACl3_mp2_4.orca

                    ********************************
                    * MULLIKEN POPULATION ANALYSIS *
                    ********************************

-----------------------
MULLIKEN ATOMIC CHARGES
-----------------------
   0 C :   -0.275303
   1 N :   -0.300488
   2 H :    0.162779
   3 H :    0.174493
   4 H :    0.161394
   5 H :    0.279137
   6 H :    0.268389
   7 H :    0.269692
   8 Pb:    0.691872
   9 Cl:   -0.318503
  10 Cl:   -0.575866
  11 Cl:   -0.537595
Sum of atomic charges:   -0.0000000

--------------------------------
MULLIKEN REDUCED ORBITAL CHARGES
--------------------------------
  0 C s       :     3.278302  s :     3.278302
      pz      :     0.976148  p :     2.917434
      px      :     1.001988
      py      :     0.939298
      dz2     :     0.008872  d :     0.072564
      dxz     :     0.018109
      dyz     :     0.017819
      dx2y2   :     0.009477
      dxy     :     0.018287
      f0      :     0.000496  f :     0.007003
      f+1     :     0.000669
      f-1     :     0.000894
      f+2     :     0.000891
      f-2     :     0.002677
      f+3     :     0.000660
      f-3     :     0.000716
  1 N s       :     3.413934  s :     3.413934
      pz      :     1.285906  p :     3.826950
      px      :     1.268720
      py      :     1.272324
      dz2     :     0.007721  d :     0.056451
      dxz     :     0.014296
      dyz     :     0.012487
      dx2y2   :     0.008058
      dxy     :     0.013889
      f0      :     0.000259  f :     0.003154
      f+1     :     0.000314
      f-1     :     0.000351
      f+2     :     0.000366
      f-2     :     0.001240
      f+3     :     0.000295
      f-3     :     0.000329
  2 H s       :     0.814851  s :     0.814851
      pz      :     0.008546  p :     0.022370
      px      :     0.007897
      py      :     0.005927
  3 H s       :     0.802971  s :     0.802971
      pz      :     0.007222  p :     0.022536
      px      :     0.007605
      py      :     0.007708
  4 H s       :     0.816258  s :     0.816258
      pz      :     0.006942  p :     0.022348
      px      :     0.007567
      py      :     0.007838
  5 H s       :     0.676549  s :     0.676549
      pz      :     0.010298  p :     0.044315
      px      :     0.015710
      py      :     0.018307
  6 H s       :     0.692903  s :     0.692903
      pz      :     0.013268  p :     0.038708
      px      :     0.010511
      py      :     0.014929
  7 H s       :     0.692168  s :     0.692168
      pz      :     0.015028  p :     0.038141
      px      :     0.015317
      py      :     0.007796
  8 Pbs       :     3.853263  s :     3.853263
      pz      :     2.374356  p :     7.356171
      px      :     2.554769
      py      :     2.427046
      dz2     :     2.004218  d :     9.965274
      dxz     :     1.992215
      dyz     :     2.014616
      dx2y2   :     1.961546
      dxy     :     1.992679
      f0      :     0.025205  f :     0.133421
      f+1     :     0.016580
      f-1     :     0.012333
      f+2     :     0.020524
      f-2     :     0.007336
      f+3     :     0.020963
      f-3     :     0.030481
  9 Cls       :     5.871721  s :     5.871721
      pz      :     3.835758  p :    11.272247
      px      :     3.607276
      py      :     3.829213
      dz2     :     0.020296  d :     0.151369
      dxz     :     0.038741
      dyz     :     0.011413
      dx2y2   :     0.039900
      dxy     :     0.041019
      f0      :     0.002589  f :     0.023166
      f+1     :     0.003534
      f-1     :     0.000798
      f+2     :     0.004057
      f-2     :     0.001182
      f+3     :     0.005165
      f-3     :     0.005841
 10 Cls       :     5.958984  s :     5.958984
      pz      :     3.921135  p :    11.564233
      px      :     3.870904
      py      :     3.772194
      dz2     :     0.009448  d :     0.049633
      dxz     :     0.009332
      dyz     :     0.008716
      dx2y2   :     0.011421
      dxy     :     0.010715
      f0      :     0.000409  f :     0.003017
      f+1     :     0.000402
      f-1     :     0.000445
      f+2     :     0.000408
      f-2     :     0.000408
      f+3     :     0.000493
      f-3     :     0.000451
 11 Cls       :     5.952426  s :     5.952426
      pz      :     3.739221  p :    11.526172
      px      :     3.908896
      py      :     3.878056
      dz2     :     0.015697  d :     0.055668
      dxz     :     0.010786
      dyz     :     0.010180
      dx2y2   :     0.008580
      dxy     :     0.010426
      f0      :     0.000657  f :     0.003329
      f+1     :     0.000527
      f-1     :     0.000478
      f+2     :     0.000399
      f-2     :     0.000418
      f+3     :     0.000449
      f-3     :     0.000401


                     *******************************
                     * LOEWDIN POPULATION ANALYSIS *
                     *******************************

----------------------
LOEWDIN ATOMIC CHARGES
----------------------
   0 C :   -0.284234
   1 N :    0.081997
   2 H :    0.128092
   3 H :    0.132981
   4 H :    0.126684
   5 H :    0.150687
   6 H :    0.166630
   7 H :    0.172196
   8 Pb:   -0.381390
   9 Cl:    0.363615
  10 Cl:   -0.382397
  11 Cl:   -0.274861

-------------------------------
LOEWDIN REDUCED ORBITAL CHARGES
-------------------------------
  0 C s       :     2.854719  s :     2.854719
      pz      :     1.033124  p :     3.086434
      px      :     1.045582
      py      :     1.007728
      dz2     :     0.031683  d :     0.304683
      dxz     :     0.078351
      dyz     :     0.080353
      dx2y2   :     0.032248
      dxy     :     0.082047
      f0      :     0.005559  f :     0.038399
      f+1     :     0.004175
      f-1     :     0.006004
      f+2     :     0.004368
      f-2     :     0.007379
      f+3     :     0.005103
      f-3     :     0.005811
  1 N s       :     3.001920  s :     3.001920
      pz      :     1.246250  p :     3.736493
      px      :     1.245307
      py      :     1.244936
      dz2     :     0.019266  d :     0.168788
      dxz     :     0.043470
      dyz     :     0.041988
      dx2y2   :     0.020916
      dxy     :     0.043148
      f0      :     0.001634  f :     0.010802
      f+1     :     0.001292
      f-1     :     0.001587
      f+2     :     0.001195
      f-2     :     0.001956
      f+3     :     0.001430
      f-3     :     0.001708
  2 H s       :     0.807693  s :     0.807693
      pz      :     0.023720  p :     0.064215
      px      :     0.022211
      py      :     0.018283
  3 H s       :     0.802582  s :     0.802582
      pz      :     0.020120  p :     0.064437
      px      :     0.023104
      py      :     0.021213
  4 H s       :     0.809120  s :     0.809120
      pz      :     0.021296  p :     0.064196
      px      :     0.021323
      py      :     0.021577
  5 H s       :     0.712223  s :     0.712223
      pz      :     0.034959  p :     0.137090
      px      :     0.047927
      py      :     0.054204
  6 H s       :     0.720516  s :     0.720516
      pz      :     0.037640  p :     0.112854
      px      :     0.033082
      py      :     0.042132
  7 H s       :     0.710907  s :     0.710907
      pz      :     0.045177  p :     0.116897
      px      :     0.044977
      py      :     0.026743
  8 Pbs       :     3.471387  s :     3.471387
      pz      :     2.507670  p :     7.974644
      px      :     2.917872
      py      :     2.549102
      dz2     :     2.140760  d :    10.535010
      dxz     :     2.109862
      dyz     :     2.050111
      dx2y2   :     2.109870
      dxy     :     2.124406
      f0      :     0.077905  f :     0.400349
      f+1     :     0.047571
      f-1     :     0.024045
      f+2     :     0.066596
      f-2     :     0.011095
      f+3     :     0.071101
      f-3     :     0.102036
  9 Cls       :     5.375465  s :     5.375465
      pz      :     3.603133  p :    10.881175
      px      :     3.682124
      py      :     3.595918
      dz2     :     0.044821  d :     0.297035
      dxz     :     0.062387
      dyz     :     0.013415
      dx2y2   :     0.107215
      dxy     :     0.069198
      f0      :     0.007444  f :     0.082711
      f+1     :     0.016009
      f-1     :     0.001653
      f+2     :     0.012135
      f-2     :     0.002208
      f+3     :     0.024975
      f-3     :     0.018287
 10 Cls       :     5.832813  s :     5.832813
      pz      :     3.893894  p :    11.489977
      px      :     3.848145
      py      :     3.747938
      dz2     :     0.010809  d :     0.056242
      dxz     :     0.009579
      dyz     :     0.008761
      dx2y2   :     0.015287
      dxy     :     0.011806
      f0      :     0.000414  f :     0.003365
      f+1     :     0.000417
      f-1     :     0.000529
      f+2     :     0.000437
      f-2     :     0.000414
      f+3     :     0.000612
      f-3     :     0.000542
 11 Cls       :     5.784227  s :     5.784227
      pz      :     3.710071  p :    11.419098
      px      :     3.871291
      py      :     3.837736
      dz2     :     0.025355  d :     0.067429
      dxz     :     0.010887
      dyz     :     0.010694
      dx2y2   :     0.008774
      dxy     :     0.011719
      f0      :     0.001151  f :     0.004106
      f+1     :     0.000606
      f-1     :     0.000570
      f+2     :     0.000404
      f-2     :     0.000431
      f+3     :     0.000532
      f-3     :     0.000413


                      *****************************
                      * MAYER POPULATION ANALYSIS *
                      *****************************

  NA   - Mulliken gross atomic population
  ZA   - Total nuclear charge
  QA   - Mulliken gross atomic charge
  VA   - Mayer's total valence
  BVA  - Mayer's bonded valence
  FA   - Mayer's free valence

  ATOM       NA         ZA         QA         VA         BVA        FA
  0 C      6.2753     6.0000    -0.2753     3.8721     3.7584     0.1137
  1 N      7.3005     7.0000    -0.3005     3.3982     3.2559     0.1423
  2 H      0.8372     1.0000     0.1628     0.9645     0.9462     0.0183
  3 H      0.8255     1.0000     0.1745     0.9633     0.9453     0.0180
  4 H      0.8386     1.0000     0.1614     0.9625     0.9442     0.0183
  5 H      0.7209     1.0000     0.2791     1.0125     0.9915     0.0210
  6 H      0.7316     1.0000     0.2684     0.9523     0.9321     0.0202
  7 H      0.7303     1.0000     0.2697     1.0167     0.9952     0.0215
  8 Pb    21.3081    22.0000     0.6919     2.6727     2.3207     0.3521
  9 Cl    17.3185    17.0000    -0.3185     1.5626     1.3188     0.2438
 10 Cl    17.5759    17.0000    -0.5759     0.9738     0.7133     0.2605
 11 Cl    17.5376    17.0000    -0.5376     1.0327     0.7739     0.2588

  Mayer bond orders larger than 0.1
B(  0-C ,  1-N ) :   0.8863 B(  0-C ,  2-H ) :   0.9516 B(  0-C ,  3-H ) :   0.9496 
B(  0-C ,  4-H ) :   0.9515 B(  1-N ,  5-H ) :   0.7623 B(  1-N ,  6-H ) :   0.8513 
B(  1-N ,  7-H ) :   0.7994 B(  5-H , 11-Cl) :   0.2293 B(  7-H , 10-Cl) :   0.1918 
B(  8-Pb,  9-Cl) :   1.2249 B(  8-Pb, 10-Cl) :   0.5241 B(  8-Pb, 11-Cl) :   0.5443 



-------
TIMINGS
-------

Total time                :  758.787 sec
Integral trafo            :    3.610 sec (  0.5%)
I/O of integrals          :    0.473 sec (  0.1%)
K(i,j) Operators          :   10.670 sec (  1.4%)
T(i,j) pair energies      :    2.228 sec (  0.3%)
V-calculation             :    0.022 sec (  0.0%)
V**(-1/2)                 :    0.040 sec (  0.0%)
Gamma(ia|P)               :    9.682 sec (  1.3%)
Gamma-Trafo               :    1.407 sec (  0.2%)
D(virtual)                :    4.197 sec (  0.6%)
D(internal)               :    7.230 sec (  1.0%)
W(virtual)                :    8.320 sec (  1.1%)
W(internal)               :   16.282 sec (  2.1%)
L(virtual)                :    9.508 sec (  1.3%)
L(internal)               :    0.585 sec (  0.1%)
G(D)                      :   19.307 sec (  2.5%)
G(Z)                      :   19.531 sec (  2.6%)
Z-Vector Solution         :  491.911 sec ( 64.8%)
Z-Vector Solution         :  491.911 sec ( 64.8%)
3-Index Derivative 
+ Separable RIJ part      :    6.796 sec (  0.9%)
2-Index Derivative 
+ Separable RIJ part      :    0.046 sec (  0.0%)
Separable Gradient (COSX) :  143.773 sec ( 18.9%)


---------------------------------------
MP2 TOTAL ENERGY:    -1669.273122399 Eh
---------------------------------------

The final MP2 gradient
  0:  -0.00219881  -0.00045566   0.00069960
  1:  -0.00202839   0.00103001   0.01146368
  2:   0.00310919  -0.00200501   0.00280063
  3:  -0.00227096   0.00342692   0.00313829
  4:   0.00264635   0.00230949  -0.00282926
  5:   0.00182020   0.00273645  -0.00229649
  6:   0.00263692  -0.01448401  -0.01402915
  7:   0.00254785  -0.00083610  -0.00223731
  8:   0.79244029   0.07193029  -0.03859496
  9:  -0.77135784  -0.06708324   0.05044948
 10:  -0.01896859   0.00607443  -0.00590384
 11:  -0.00840765  -0.00341552  -0.00220436

-----------------------------------
NORM OF THE MP2 GRADIENT:  1.112580
-----------------------------------

Entering the calculation of the dispersion correction...

Checking the input atom types...

Done


-------------------------------------------------------------------------------
                          DFT DISPERSION CORRECTION                            
                                                                               
                                DFTD3 V2.1  Rev 6                               
                          USING Becke-Johnson damping                          
-------------------------------------------------------------------------------
The B2PLYP functional is recognized
Active option DFTDOPT                   ...         4   

molecular C6(AA) [au] = 4877.470212 


            DFT-D V3
 parameters
 s6 scaling factor         :     0.6400 
 a1 scaling factor         :     0.3065 
 s8 scaling factor         :     0.9147 
 a2 scaling factor         :     5.0570 
 ad hoc parameters k1-k3   :    16.0000     1.3333    -4.0000 

 Edisp/kcal,au: -8.809461926399  -0.014038769693 
 E6   /kcal   :  -4.023223321 
 E8   /kcal   :  -4.786238606 
 % E8         :  54.330657716 

-------------------------   ----------------
Dispersion correction           -0.014038770
-------------------------   ----------------


-------------------------   --------------------
FINAL SINGLE POINT ENERGY     -1669.287161168808
-------------------------   --------------------


                            ***************************************
                            *     ORCA property calculations      *
                            ***************************************


  WARNING: The energy has been calculated at the MP2 level but the densities
           used in the property calculations are still SCF densities
           MP2 response densities have not been calculated 
           use %mp2 Density relaxed end
           or  %mp2 Density unrelaxed end

                                    ---------------------
                                    Active property flags
                                    ---------------------
   (+) Dipole Moment


------------------------------------------------------------------------------
                       ORCA ELECTRIC PROPERTIES CALCULATION
------------------------------------------------------------------------------

Dipole Moment Calculation                       ... on
Quadrupole Moment Calculation                   ... off
Polarizability Calculation                      ... off
GBWName                                         ... PbMACl3_mp2_4.orca.gbw
Electron density file                           ... PbMACl3_mp2_4.orca.scfp.tmp

-------------
DIPOLE MOMENT
-------------
                                X             Y             Z
Electronic contribution:    -36.45420     -99.12420     -74.87607
Nuclear contribution   :     39.88440      99.85676      75.48845
                        -----------------------------------------
Total Dipole Moment    :      3.43020       0.73256       0.61237
                        -----------------------------------------
Magnitude (a.u.)       :      3.56061
Magnitude (Debye)      :      9.05035


                         *** MP2 UNRELAXED DENSITY ***

------------------------------------------------------------------------------
                       ORCA ELECTRIC PROPERTIES CALCULATION
------------------------------------------------------------------------------

Dipole Moment Calculation                       ... on
Quadrupole Moment Calculation                   ... off
Polarizability Calculation                      ... off
GBWName                                         ... PbMACl3_mp2_4.orca.gbw
Electron density file                           ... PbMACl3_mp2_4.orca.pmp2ur

-------------
DIPOLE MOMENT
-------------
                                X             Y             Z
Electronic contribution:    -36.47878     -99.11500     -74.86874
Nuclear contribution   :     39.88440      99.85676      75.48845
                        -----------------------------------------
Total Dipole Moment    :      3.40563       0.74176       0.61970
                        -----------------------------------------
Magnitude (a.u.)       :      3.54013
Magnitude (Debye)      :      8.99830


                           *** MP2 RELAXED DENSITY ***

------------------------------------------------------------------------------
                       ORCA ELECTRIC PROPERTIES CALCULATION
------------------------------------------------------------------------------

Dipole Moment Calculation                       ... on
Quadrupole Moment Calculation                   ... off
Polarizability Calculation                      ... off
GBWName                                         ... PbMACl3_mp2_4.orca.gbw
Electron density file                           ... PbMACl3_mp2_4.orca.pmp2re

-------------
DIPOLE MOMENT
-------------
                                X             Y             Z
Electronic contribution:    -36.58607     -99.12481     -74.87879
Nuclear contribution   :     39.88440      99.85676      75.48845
                        -----------------------------------------
Total Dipole Moment    :      3.29834       0.73195       0.60966
                        -----------------------------------------
Magnitude (a.u.)       :      3.43314
Magnitude (Debye)      :      8.72635


Timings for individual modules:

Sum of individual times         ...     1054.714 sec (=  17.579 min)
GTO integral calculation        ...        4.905 sec (=   0.082 min)   0.5 %
SCF iterations                  ...      289.833 sec (=   4.831 min)  27.5 %
MP2 module                      ...      759.976 sec (=  12.666 min)  72.1 %
                             ****ORCA TERMINATED NORMALLY****
TOTAL RUN TIME: 0 days 0 hours 17 minutes 36 seconds 507 msec
