
                                 *****************
                                 * O   R   C   A *
                                 *****************

           --- An Ab Initio, DFT and Semiempirical electronic structure package ---

                  #######################################################
                  #                        -***-                        #
                  #  Department of molecular theory and spectroscopy    #
                  #              Directorship: Frank Neese              #
                  # Max Planck Institute for Chemical Energy Conversion #
                  #                  D-45470 Muelheim/Ruhr              #
                  #                       Germany                       #
                  #                                                     #
                  #                  All rights reserved                #
                  #                        -***-                        #
                  #######################################################


                         Program Version 3.0.3 - RELEASE   -


 With contributions from (in alphabetic order):
   Ute Becker             : Parallelization
   Dmytro Bykov           : SCF Hessian
   Dmitry Ganyushin       : Spin-Orbit,Spin-Spin,Magnetic field MRCI
   Andreas Hansen         : Spin unrestricted coupled pair/coupled cluster methods
   Dimitrios Liakos       : Extrapolation schemes; parallel MDCI
   Robert Izsak           : Overlap fitted RIJCOSX, COSX-SCS-MP3
   Christian Kollmar      : KDIIS, OOCD, Brueckner-CCSD(T), CCSD density
   Simone Kossmann        : Meta GGA functionals, TD-DFT gradient, OOMP2, MP2 Hessian
   Taras Petrenko         : DFT Hessian,TD-DFT gradient, ASA and ECA modules, normal mode analysis, Resonance Raman, ABS, FL, XAS/XES, NRVS
   Christoph Reimann      : Effective Core Potentials
   Michael Roemelt        : Restricted open shell CIS
   Christoph Riplinger    : Improved optimizer, TS searches, QM/MM, DLPNO-CCSD
   Barbara Sandhoefer     : DKH picture change effects
   Igor Schapiro          : Molecular dynamics
   Kantharuban Sivalingam : CASSCF convergence, NEVPT2
   Boris Wezisla          : Elementary symmetry handling
   Frank Wennmohs         : Technical directorship


 We gratefully acknowledge several colleagues who have allowed us to
 interface, adapt or use parts of their codes:
   Stefan Grimme, W. Hujo, H. Kruse, T. Risthaus : VdW corrections, initial TS optimization,
                                                   DFT functionals, gCP
   Ed Valeev                                     : LibInt (2-el integral package), F12 methods
   Garnet Chan, S. Sharma, R. Olivares           : DMRG
   Ulf Ekstrom                                   : XCFun DFT Library
   Mihaly Kallay                                 : mrcc  (arbitrary order and MRCC methods)
   Andreas Klamt, Michael Diedenhofen            : otool_cosmo (COSMO solvation model)
   Frank Weinhold                                : gennbo (NPA and NBO analysis)
   Christopher J. Cramer and Donald G. Truhlar   : smd solvation model


 Your calculation uses the libint2 library for the computation of 2-el integrals
 For citations please refer to: http://libint.valeyev.net

 This ORCA versions uses:
   CBLAS   interface :  Fast vector & matrix operations
   LAPACKE interface :  Fast linear algebra routines
   SCALAPACK package :  Parallel linear algebra routines


Your calculation utilizes the basis: Ahlrichs-TZV
Cite in your paper:
H - Kr: A. Schaefer, H. Horn and R. Ahlrichs, J. Chem. Phys. 97, 2571 (1992).

The def2-TZV basis will be loaded
Cite in your paper:
 	F. Weigend, R. Ahlrichs, Phys. Chem. Chem. Phys. 2005, 7, 3297.

Your calculation utilizes the atom-pairwise dispersion correction
with the Becke-Johnson damping scheme (D3BJ)
Cite in your paper:
S.Grimme, S.Ehrlich, L.Goerigk, J Comput Chem, (2011), 32, 1456–1465 
S.Grimme, J.Antony, S.Ehrlich and H.Krieg, J.Chem.Phys., 132, (2010), 154104 
   

================================================================================
                                        WARNINGS
                       Please study these warnings very carefully!
================================================================================

WARNING: The RI method has been chosen with no auxiliary basis (AUX or GTOAUX in BASIS block)
        Standard TZV/J expansion basis used (GTOAUX=TZV_J)

Now building the actual basis set
cite the ECPs for Pb [SD(60,MDF)] as follows:
  B. Metz, H. Stoll, M. Dolg, J. Chem. Phys. 113, 2563 (2000).

ECP parameters for Pb [SD(60,MDF)] have been obtained from:
  pseudopotential library of the Stuttgart/Cologne group
  http://www.theochem.uni-stuttgart.de/pseudopotentials/

cite the ECP basis sets for Pb [DEF2-TZVP] as follows:
  F. Weigend, R. Ahlrichs; Phys. Chem. Chem. Phys. 7, 3297(2005).

ECP basis sets for Pb [DEF2-TZVP] have been obtained from:
  Turbomole basis set library
  ftp://ftp.chemie.uni-karlsruhe.de/pub/basen/



INFO   : the flag for use of LIBINT has been found!

================================================================================
                                       INPUT FILE
================================================================================
NAME = PbMACl3_mp2_md2_23.orca
|  1> ! RIJCOSX RI-B2PLYP D3BJ def2-TZVP ECP{def2-TZVP} TIGHTSCF Grid5 FinalGrid6 SlowConv MORead
|  2> %method
|  3>  RunTyp Gradient
|  4>  end
|  5> %maxcore 1000
|  6> %moinp "previous.gbw"
|  7> *xyz 0 1
|  8> C -0.394281 0.276013 -0.426662 
|  9> N -1.165380 -0.685592 -1.253010 
| 10> H 0.248796 -0.278576 0.260517 
| 11> H -1.090820 0.897444 0.140826 
| 12> H 0.215705 0.904875 -1.079130 
| 13> H -1.783150 -1.324970 -0.698370 
| 14> H -0.582260 -1.326300 -1.835140 
| 15> H -1.813140 -0.240924 -1.938260 
| 16> Pb -2.544160 -2.637720 -3.008440 
| 17> Cl -0.091640 -2.338030 -3.472170 
| 18> Cl -3.539640 -0.324771 -2.979870 
| 19> Cl -2.480820 -3.478070 -0.654522 
| 20> *
| 21> 
| 22>                          ****END OF INPUT****
================================================================================

                     *******************************
                     * Energy+Gradient Calculation *
                     *******************************

---------------------------------
CARTESIAN COORDINATES (ANGSTROEM)
---------------------------------
  C     -0.394281    0.276013   -0.426662
  N     -1.165380   -0.685592   -1.253010
  H      0.248796   -0.278576    0.260517
  H     -1.090820    0.897444    0.140826
  H      0.215705    0.904875   -1.079130
  H     -1.783150   -1.324970   -0.698370
  H     -0.582260   -1.326300   -1.835140
  H     -1.813140   -0.240924   -1.938260
  Pb    -2.544160   -2.637720   -3.008440
  Cl    -0.091640   -2.338030   -3.472170
  Cl    -3.539640   -0.324771   -2.979870
  Cl    -2.480820   -3.478070   -0.654522

----------------------------
CARTESIAN COORDINATES (A.U.)
----------------------------
  NO LB      ZA    FRAG    MASS        X           Y           Z
   0 C     6.0000    0    12.011         -0.745083109808605          0.521588979402006         -0.806274331751109
   1 N     7.0000    0    14.007         -2.202249041949148         -1.295581119607339         -2.367845743064668
   2 H     1.0000    0     1.008          0.470156303215072         -0.526432347483247          0.492305783230763
   3 H     1.0000    0     1.008         -2.061351061403979          1.695923380530824          0.266122572535594
   4 H     1.0000    0     1.008          0.407623375717484          1.709965935431992         -2.039260162898440
   5 H     1.0000    0     1.008         -3.369665155701680         -2.503830435661641         -1.319728040146585
   6 H     1.0000    0     1.008         -1.100311938736988         -2.506343771419756         -3.467912017404246
   7 H     1.0000    0     1.008         -3.426338042457978         -0.455280379088844         -3.662780576334205
   8 Pb   22.0000*   0   207.200  -4.807765640877092  -4.984568417966764  -5.685127690334050
   9 Cl   17.0000    0    35.453         -0.173174502912543         -4.418236392891903         -6.561450390417352
  10 Cl   17.0000    0    35.453         -6.688950212673019         -0.613728246239739         -5.631138214687920
  11 Cl   17.0000    0    35.453         -4.688070387554520         -6.572599774607488         -1.236867328626406
* core charge reduced due to ECP

--------------------------------
INTERNAL COORDINATES (ANGSTROEM)
--------------------------------
 C      0   0   0   0.000000     0.000     0.000
 N      1   0   0   1.483957     0.000     0.000
 H      1   2   0   1.092397   109.099     0.000
 H      1   2   3   1.092422   109.061   240.173
 H      1   2   3   1.092367   109.305   120.114
 H      2   1   3   1.047888   114.015    60.210
 H      2   1   3   1.043749   114.711   299.789
 H      2   1   3   1.042540   114.361   179.708
 Pb     7   2   1   2.635433    97.924   181.193
 Cl     7   2   1   1.985994   155.569   221.789
 Cl     8   2   1   2.018114   148.548   211.105
 Cl     6   2   1   2.263737   140.559   218.935

---------------------------
INTERNAL COORDINATES (A.U.)
---------------------------
 C      0   0   0   0.000000     0.000     0.000
 N      1   0   0   2.804273     0.000     0.000
 H      1   2   0   2.064332   109.099     0.000
 H      1   2   3   2.064378   109.061   240.173
 H      1   2   3   2.064274   109.305   120.114
 H      2   1   3   1.980222   114.015    60.210
 H      2   1   3   1.972399   114.711   299.789
 H      2   1   3   1.970116   114.361   179.708
 Pb     7   2   1   4.980247    97.924   181.193
 Cl     7   2   1   3.752985   155.569   221.789
 Cl     8   2   1   3.813683   148.548   211.105
 Cl     6   2   1   4.277843   140.559   218.935

---------------------
BASIS SET INFORMATION
---------------------
There are 5 groups of distinct atoms

 Group   1 Type C   : 11s6p2d1f contracted to 5s3p2d1f pattern {62111/411/11/1}
 Group   2 Type N   : 11s6p2d1f contracted to 5s3p2d1f pattern {62111/411/11/1}
 Group   3 Type H   : 5s1p contracted to 3s1p pattern {311/1}
 Group   4 Type Pb  : 10s9p8d2f contracted to 6s5p3d2f pattern {421111/33111/611/11}
 Group   5 Type Cl  : 14s9p3d1f contracted to 5s5p2d1f pattern {73211/51111/21/1}

Atom   0C    basis set group =>   1
Atom   1N    basis set group =>   2
Atom   2H    basis set group =>   3
Atom   3H    basis set group =>   3
Atom   4H    basis set group =>   3
Atom   5H    basis set group =>   3
Atom   6H    basis set group =>   3
Atom   7H    basis set group =>   3
Atom   8Pb   basis set group =>   4
Atom   9Cl   basis set group =>   5
Atom  10Cl   basis set group =>   5
Atom  11Cl   basis set group =>   5
-------------------------------
AUXILIARY BASIS SET INFORMATION
-------------------------------
There are 5 groups of distinct atoms

 Group   1 Type C   : 12s5p4d2f1g contracted to 6s4p3d1f1g pattern {711111/2111/211/2/1}
 Group   2 Type N   : 12s5p4d2f1g contracted to 6s4p3d1f1g pattern {711111/2111/211/2/1}
 Group   3 Type H   : 5s2p1d contracted to 3s1p1d pattern {311/2/1}
 Group   4 Type Pb  : 31s12p8d6f3g contracted to 31s12p8d6f3g pattern {1111111111111111111111111111111/111111111111/11111111/111111/111}
 Group   5 Type Cl  : 14s5p5d2f1g contracted to 8s4p3d1f1g pattern {71111111/2111/311/2/1}

Atom   0C    basis set group =>   1
Atom   1N    basis set group =>   2
Atom   2H    basis set group =>   3
Atom   3H    basis set group =>   3
Atom   4H    basis set group =>   3
Atom   5H    basis set group =>   3
Atom   6H    basis set group =>   3
Atom   7H    basis set group =>   3
Atom   8Pb   basis set group =>   4
Atom   9Cl   basis set group =>   5
Atom  10Cl   basis set group =>   5
Atom  11Cl   basis set group =>   5

-------------------------
ECP PARAMETER INFORMATION
-------------------------

 Group 1, Type Pb ECP SD(60,MDF) (replacing 60 core electrons, lmax=5)

Atom   8Pb   ECP group =>   1


------------------------------------------------------------------------------
                           ORCA GTO INTEGRAL CALCULATION
                           -- RI-GTO INTEGRALS CHOSEN --
------------------------------------------------------------------------------

                         BASIS SET STATISTICS AND STARTUP INFO

Gaussian basis set:
 # of primitive gaussian shells          ...  186
 # of primitive gaussian functions       ...  420
 # of contracted shells                  ...  101
 # of contracted basis functions         ...  259
 Highest angular momentum                ...    3
 Maximum contraction depth               ...    7
Auxiliary gaussian basis set:
 # of primitive gaussian shells          ...  237
 # of primitive gaussian functions       ...  643
 # of contracted shells                  ...  171
 # of contracted aux-basis functions     ...  493
 Highest angular momentum                ...    4
 Maximum contraction depth               ...    7
Ratio of auxiliary to basis functions    ...  1.90
Integral package used                  ... LIBINT
 One Electron integrals                  
   ECP integrals                         ... done
 Ordering auxiliary basis shells         ... done
 Integral threshhold             Thresh  ...  2.500e-11
 Primitive cut-off               TCut    ...  2.500e-12
 Pre-screening matrix                    ... done
 Shell pair data                         ... 
 Ordering of the shell pairs             ... done (   0.001 sec) 4496 of 5151 pairs
 Determination of significant pairs      ... done (   0.000 sec)
 Creation of shell pair data             ... done (   0.001 sec)
 Storage of shell pair data              ... done (   0.001 sec)
 Shell pair data done in (   0.003 sec)
 Computing two index integrals           ... done
 Cholesky decomposition of the V-matrix  ... done


Timings:
 Total evaluation time                   ...   1.090 sec (  0.018 min)
 One electron matrix time                ...   0.637 sec (  0.011 min) = 58.5%
 Schwartz matrix evaluation time         ...   0.356 sec (  0.006 min) = 32.6%
 Two index repulsion integral time       ...   0.007 sec (  0.000 min) =  0.6%
 Cholesky decomposition of V             ...   0.037 sec (  0.001 min) =  3.4%
 Three index repulsion integral time     ...   0.000 sec (  0.000 min) =  0.0%

-------------------------------------------------------------------------------
                                 ORCA SCF
-------------------------------------------------------------------------------

------------
SCF SETTINGS
------------
Hamiltonian:
 Density Functional     Method          .... DFT(GTOs)
 Exchange Functional    Exchange        .... B88
   X-Alpha parameter    XAlpha          ....  0.666667
   Becke's b parameter  XBeta           ....  0.004200
 Correlation Functional Correlation     .... LYP
 LDA part of GGA corr.  LDAOpt          .... VWN-3
 Gradients option       PostSCFGGA      .... off
 Hybrid DFT is turned on
   Fraction HF Exchange ScalHFX         ....  0.530000
   Scaling of DF-GGA-X  ScalDFX         ....  0.470000
   Scaling of DF-GGA-C  ScalDFC         ....  0.730000
   Scaling of DF-LDA-C  ScalLDAC        ....  0.730000
   Perturbative correction              ....  0.270000
 RI-approximation to the Coulomb term is turned on
   Number of auxiliary basis functions  .... 493
   RIJ-COSX (HFX calculated with COS-X)).... on


General Settings:
 Integral files         IntName         .... PbMACl3_mp2_md2_23.orca
 Hartree-Fock type      HFTyp           .... RHF
 Total Charge           Charge          ....    0
 Multiplicity           Mult            ....    1
 Number of Electrons    NEL             ....   92
 Basis Dimension        Dim             ....  259
 Nuclear Repulsion      ENuc            ....    611.8250458436 Eh

Convergence Acceleration:
 DIIS                   CNVDIIS         .... on
   Start iteration      DIISMaxIt       ....     0
   Startup error        DIISStart       ....  0.200000
   # of expansion vecs  DIISMaxEq       ....     5
   Bias factor          DIISBfac        ....   1.050
   Max. coefficient     DIISMaxC        ....  10.000
 Newton-Raphson         CNVNR           .... off
 SOSCF                  CNVSOSCF        .... on
   Start iteration      SOSCFMaxIt      ....   150
   Startup grad/error   SOSCFStart      ....  0.001000
 Level Shifting         CNVShift        .... on
   Level shift para.    LevelShift      ....    0.2500
   Turn off err/grad.   ShiftErr        ....    0.0000
 Zerner damping         CNVZerner       .... off
 Static damping         CNVDamp         .... on
   Fraction old density DampFac         ....    0.8500
   Max. Damping (<1)    DampMax         ....    0.9800
   Min. Damping (>=0)   DampMin         ....    0.0000
   Turn off err/grad.   DampErr         ....    0.0300
 Fernandez-Rico         CNVRico         .... off

SCF Procedure:
 Maximum # iterations   MaxIter         ....   125
 SCF integral mode      SCFMode         .... Direct
   Integral package                     .... LIBINT
 Reset frequeny         DirectResetFreq ....    20
 Integral Threshold     Thresh          ....  2.500e-11 Eh
 Primitive CutOff       TCut            ....  2.500e-12 Eh

Convergence Tolerance:
 Convergence Check Mode ConvCheckMode   .... Total+1el-Energy
 Energy Change          TolE            ....  1.000e-08 Eh
 1-El. energy change                    ....  1.000e-05 Eh
 Orbital Gradient       TolG            ....  1.000e-05
 Orbital Rotation angle TolX            ....  1.000e-05
 DIIS Error             TolErr          ....  5.000e-07


Diagonalization of the overlap matrix:
Smallest eigenvalue                        ... 1.051e-03
Time for diagonalization                   ...    0.163 sec
Threshold for overlap eigenvalues          ... 1.000e-08
Number of eigenvalues below threshold      ... 0
Time for construction of square roots      ...    0.014 sec
Total time needed                          ...    0.178 sec

---------------------
INITIAL GUESS: MOREAD
---------------------
Guess MOs are being read from file: previous.gbw
Input geometry compatible with but different from current geometry
Input basis set matches current basis set (good)
MOs were renormalized
MOs were reorthogonalized (Schmidt)
                      ------------------
                      INITIAL GUESS DONE (   0.3 sec)
                      ------------------
-------------------
DFT GRID GENERATION
-------------------

General Integration Accuracy     IntAcc      ...  5.010
Radial Grid Type                 RadialGrid  ... Gauss-Chebyshev
Angular Grid (max. acc.)         AngularGrid ... Lebedev-434
Angular grid pruning method      GridPruning ... 3 (G Style)
Weight generation scheme         WeightScheme... Becke
Basis function cutoff            BFCut       ...    1.0000e-11
Integration weight cutoff        WCut        ...    1.0000e-14
Grids for H and He will be reduced by one unit

# of grid points (after initial pruning)     ... 115882 (   0.1 sec)
# of grid points (after weights+screening)   ... 108516 (   0.5 sec)
nearest neighbour list constructed           ...    0.0 sec
Grid point re-assignment to atoms done       ...    0.0 sec
Grid point division into batches done        ...    1.0 sec
Reduced shell lists constructed in    2.5 sec

Total number of grid points                  ...   108516
Total number of batches                      ...     1701
Average number of points per batch           ...       63
Average number of grid points per atom       ...     9043
Average number of shells per batch           ...    56.25 (55.69%)
Average number of basis functions per batch  ...   149.05 (57.55%)
Average number of large shells per batch     ...    42.67 (75.86%)
Average number of large basis fcns per batch ...   110.00 (73.80%)
Maximum spatial batch extension              ...  30.77, 35.95, 33.23 au
Average spatial batch extension              ...   2.43,  2.42,  2.44 au

Time for grid setup =    3.043 sec

--------------------
COSX GRID GENERATION
--------------------

General Integration Accuracy     IntAcc      ...  3.340
Radial Grid Type                 RadialGrid  ... Gauss-Chebyshev
Angular Grid (max. acc.)         AngularGrid ... Lebedev-50
Angular grid pruning method      GridPruning ... 3 (G Style)
Weight generation scheme         WeightScheme... Becke
Basis function cutoff            BFCut       ...    1.0000e-11
Integration weight cutoff        WCut        ...    1.0000e-14
Grids for H and He will be reduced by one unit

# of grid points (after initial pruning)     ...   6578 (   0.0 sec)
# of grid points (after weights+screening)   ...   6199 (   0.0 sec)
nearest neighbour list constructed           ...    0.0 sec
Grid point re-assignment to atoms done       ...    0.0 sec
Grid point division into batches done        ...    0.0 sec
Reduced shell lists constructed in    0.1 sec

Total number of grid points                  ...     6199
Total number of batches                      ...      104
Average number of points per batch           ...       59
Average number of grid points per atom       ...      517
Average number of shells per batch           ...    68.10 (67.42%)
Average number of basis functions per batch  ...   183.16 (70.72%)
Average number of large shells per batch     ...    53.52 (78.60%)
Average number of large basis fcns per batch ...   140.57 (76.75%)
Maximum spatial batch extension              ...  40.64, 29.83, 28.81 au
Average spatial batch extension              ...   6.48,  6.08,  6.26 au

Overlap Fitting                  UseSFitting ... on
Constructing numerical overlap ... done (      0.1 sec)
Inverting numerical overlap    ... done (      0.0 sec)
Obtaining analytic overlap     ... done (      0.0 sec)
Final contraction and storage  ... done (      0.0 sec)


General Integration Accuracy     IntAcc      ...  3.670
Radial Grid Type                 RadialGrid  ... Gauss-Chebyshev
Angular Grid (max. acc.)         AngularGrid ... Lebedev-50
Angular grid pruning method      GridPruning ... 3 (G Style)
Weight generation scheme         WeightScheme... Becke
Basis function cutoff            BFCut       ...    1.0000e-11
Integration weight cutoff        WCut        ...    1.0000e-14
Grids for H and He will be reduced by one unit

# of grid points (after initial pruning)     ...   8124 (   0.0 sec)
# of grid points (after weights+screening)   ...   7638 (   0.0 sec)
nearest neighbour list constructed           ...    0.0 sec
Grid point re-assignment to atoms done       ...    0.0 sec
Grid point division into batches done        ...    0.0 sec
Reduced shell lists constructed in    0.1 sec

Total number of grid points                  ...     7638
Total number of batches                      ...      123
Average number of points per batch           ...       62
Average number of grid points per atom       ...      636
Average number of shells per batch           ...    67.15 (66.49%)
Average number of basis functions per batch  ...   180.06 (69.52%)
Average number of large shells per batch     ...    52.58 (78.30%)
Average number of large basis fcns per batch ...   137.21 (76.20%)
Maximum spatial batch extension              ...  42.24, 30.76, 31.53 au
Average spatial batch extension              ...   6.19,  5.74,  5.90 au

Overlap Fitting                  UseSFitting ... on
Constructing numerical overlap ... done (      0.1 sec)
Inverting numerical overlap    ... done (      0.0 sec)
Obtaining analytic overlap     ... done (      0.0 sec)
Final contraction and storage  ... done (      0.0 sec)


General Integration Accuracy     IntAcc      ...  4.010
Radial Grid Type                 RadialGrid  ... Gauss-Chebyshev
Angular Grid (max. acc.)         AngularGrid ... Lebedev-110
Angular grid pruning method      GridPruning ... 3 (G Style)
Weight generation scheme         WeightScheme... Becke
Basis function cutoff            BFCut       ...    1.0000e-11
Integration weight cutoff        WCut        ...    1.0000e-14
Grids for H and He will be reduced by one unit

# of grid points (after initial pruning)     ...  15170 (   0.0 sec)
# of grid points (after weights+screening)   ...  14367 (   0.0 sec)
nearest neighbour list constructed           ...    0.0 sec
Grid point re-assignment to atoms done       ...    0.0 sec
Grid point division into batches done        ...    0.0 sec
Reduced shell lists constructed in    0.2 sec

Total number of grid points                  ...    14367
Total number of batches                      ...      230
Average number of points per batch           ...       62
Average number of grid points per atom       ...     1197
Average number of shells per batch           ...    63.37 (62.74%)
Average number of basis functions per batch  ...   169.70 (65.52%)
Average number of large shells per batch     ...    49.16 (77.57%)
Average number of large basis fcns per batch ...   128.41 (75.67%)
Maximum spatial batch extension              ...  34.29, 34.29, 34.82 au
Average spatial batch extension              ...   4.85,  4.91,  5.01 au

Overlap Fitting                  UseSFitting ... on
Constructing numerical overlap ... done (      0.2 sec)
Inverting numerical overlap    ... done (      0.0 sec)
Obtaining analytic overlap     ... done (      0.0 sec)
Final contraction and storage  ... done (      0.0 sec)

Time for X-Grid setup             =    1.002 sec
--------------
SCF ITERATIONS
--------------
ITER       Energy         Delta-E        Max-DP      RMS-DP      [F,P]     Damp
               ***  Starting incremental Fock matrix formation  ***
  0  -1668.9541806474   0.000000000000 0.00599074  0.00019998  0.3162922 0.8500
  1  -1668.9624045267  -0.008223879301 0.00681162  0.00022470  0.2691169 0.8500
                               ***Turning on DIIS***
  2  -1668.9696974154  -0.007292888656 0.00695346  0.00020970  0.2288371 0.8500
  3  -1668.9758925230  -0.006195107671 0.00824636  0.00019383  0.1945772 0.8500
  4  -1668.9812295338  -0.005337010816 0.00976348  0.00018310  0.1654290 0.8500
  5  -1668.9858170821  -0.004587548273 0.00941119  0.00016777  0.1406331 0.8500
  6  -1668.9898154869  -0.003998404768 0.00820412  0.00014971  0.1195476 0.8500
  7  -1668.9933129594  -0.003497472487 0.00671513  0.00013135  0.1016207 0.8500
  8  -1668.9963706921  -0.003057732704 0.00580389  0.00011462  0.0863812 0.8500
  9  -1668.9990261088  -0.002655416741 0.00519153  0.00009958  0.0734267 0.8500
 10  -1669.0013252803  -0.002299171498 0.00458670  0.00008615  0.0624150 0.8500
 11  -1669.0033133966  -0.001988116243 0.00395617  0.00007426  0.0530549 0.8500
 12  -1669.0050302946  -0.001716898019 0.00336074  0.00006385  0.0450984 0.8500
 13  -1669.0065103769  -0.001480082354 0.00286109  0.00005483  0.0383350 0.8500
 14  -1669.0077837854  -0.001273408474 0.00245559  0.00004706  0.0325859 0.8500
 15  -1669.0088775044  -0.001093719023 0.01409495  0.00026906  0.0276990 0.0000
                      *** Initiating the SOSCF procedure ***
                           *** Shutting down DIIS ***
                      *** Re-Reading the Fockian *** 
                      *** Removing any level shift *** 
ITER      Energy       Delta-E        Grad      Rot      Max-DP    RMS-DP
 16  -1669.01528972  -0.0064122114  0.000157  0.000157  0.000523  0.000007
               *** Restarting incremental Fock matrix formation ***
 17  -1669.01528448   0.0000052325  0.000091  0.000268  0.000282  0.000005
 18  -1669.01528476  -0.0000002720  0.000032  0.000169  0.000216  0.000003
 19  -1669.01528479  -0.0000000353  0.000032  0.000039  0.000125  0.000001
                  ***Gradient check signals convergence***
              ***Rediagonalizing the Fockian in SOSCF/NRSCF***

               *****************************************************
               *                     SUCCESS                       *
               *           SCF CONVERGED AFTER  20 CYCLES          *
               *****************************************************

Old exchange energy                            =    -59.229058679 Eh
New exchange energy                            =    -59.231186322 Eh
Exchange energy change after final integration =     -0.002127642 Eh
Total energy after final integration           =  -1669.017412440 Eh
Final COS-X integration done in                =    25.702 sec

----------------
TOTAL SCF ENERGY
----------------

Total Energy       :        -1669.01741244 Eh          -45416.27271 eV

Components:
Nuclear Repulsion  :          611.82504584 Eh           16648.60590 eV
Electronic Energy  :        -2280.84245828 Eh          -62064.87861 eV

One Electron Energy:        -3593.70818342 Eh          -97789.77121 eV
Two Electron Energy:         1312.86572513 Eh           35724.89260 eV

Virial components:
Potential Energy   :        -3206.95064941 Eh          -87265.56367 eV
Kinetic Energy     :         1537.93323697 Eh           41849.29095 eV
Virial Ratio       :            2.08523398


DFT components:
N(Alpha)           :       46.000035626394 electrons
N(Beta)            :       46.000035626394 electrons
N(Total)           :       92.000071252789 electrons
E(X)               :      -52.599701172766 Eh       
E(C)               :       -2.612911929483 Eh       
E(XC)              :      -55.212613102249 Eh       

---------------
SCF CONVERGENCE
---------------

  Last Energy change         ...   -7.6398e-09  Tolerance :   1.0000e-08
  Last MAX-Density change    ...    8.2823e-14  Tolerance :   1.0000e-07
  Last RMS-Density change    ...    6.9829e-16  Tolerance :   5.0000e-09
  Last Orbital Gradient      ...    1.3055e-06  Tolerance :   1.0000e-05
  Last Orbital Rotation      ...    2.5193e-06  Tolerance :   1.0000e-05

             **** THE GBW FILE WAS UPDATED (PbMACl3_mp2_md2_23.orca.gbw) ****
             **** DENSITY FILE WAS UPDATED (PbMACl3_mp2_md2_23.orca.scfp.tmp) ****
             **** ENERGY FILE WAS UPDATED (PbMACl3_mp2_md2_23.orca.en.tmp) ****
----------------
ORBITAL ENERGIES
----------------

  NO   OCC          E(Eh)            E(eV) 
   0   2.0000    -102.865744     -2799.1192 
   1   2.0000    -102.865741     -2799.1191 
   2   2.0000    -102.861685     -2799.0087 
   3   2.0000     -14.961409      -407.1206 
   4   2.0000     -10.711384      -291.4716 
   5   2.0000      -9.874150      -268.6893 
   6   2.0000      -9.874097      -268.6878 
   7   2.0000      -9.869485      -268.5624 
   8   2.0000      -7.511052      -204.3861 
   9   2.0000      -7.510991      -204.3844 
  10   2.0000      -7.509590      -204.3463 
  11   2.0000      -7.509508      -204.3441 
  12   2.0000      -7.509052      -204.3317 
  13   2.0000      -7.509019      -204.3308 
  14   2.0000      -7.506557      -204.2638 
  15   2.0000      -7.504815      -204.2164 
  16   2.0000      -7.504442      -204.2063 
  17   2.0000      -5.800128      -157.8295 
  18   2.0000      -3.572285       -97.2068 
  19   2.0000      -3.570331       -97.1537 
  20   2.0000      -3.569848       -97.1405 
  21   2.0000      -1.147441       -31.2235 
  22   2.0000      -0.976919       -26.5833 
  23   2.0000      -0.975885       -26.5552 
  24   2.0000      -0.964905       -26.2564 
  25   2.0000      -0.960515       -26.1370 
  26   2.0000      -0.959357       -26.1054 
  27   2.0000      -0.907495       -24.6942 
  28   2.0000      -0.880649       -23.9637 
  29   2.0000      -0.873542       -23.7703 
  30   2.0000      -0.859664       -23.3926 
  31   2.0000      -0.673509       -18.3271 
  32   2.0000      -0.672405       -18.2971 
  33   2.0000      -0.612393       -16.6641 
  34   2.0000      -0.559550       -15.2261 
  35   2.0000      -0.524317       -14.2674 
  36   2.0000      -0.523342       -14.2409 
  37   2.0000      -0.403699       -10.9852 
  38   2.0000      -0.399375       -10.8675 
  39   2.0000      -0.381225       -10.3737 
  40   2.0000      -0.365072        -9.9341 
  41   2.0000      -0.363785        -9.8991 
  42   2.0000      -0.361777        -9.8445 
  43   2.0000      -0.359708        -9.7881 
  44   2.0000      -0.352226        -9.5846 
  45   2.0000      -0.288709        -7.8562 
  46   0.0000      -0.010999        -0.2993 
  47   0.0000       0.028599         0.7782 
  48   0.0000       0.037381         1.0172 
  49   0.0000       0.040919         1.1135 
  50   0.0000       0.087522         2.3816 
  51   0.0000       0.109025         2.9667 
  52   0.0000       0.111653         3.0382 
  53   0.0000       0.114477         3.1151 
  54   0.0000       0.132980         3.6186 
  55   0.0000       0.141547         3.8517 
  56   0.0000       0.152080         4.1383 
  57   0.0000       0.157002         4.2722 
  58   0.0000       0.178955         4.8696 
  59   0.0000       0.221751         6.0342 
  60   0.0000       0.227993         6.2040 
  61   0.0000       0.265523         7.2252 
  62   0.0000       0.266544         7.2530 
  63   0.0000       0.270058         7.3487 
  64   0.0000       0.275907         7.5078 
  65   0.0000       0.279620         7.6088 
  66   0.0000       0.287191         7.8149 
  67   0.0000       0.322392         8.7727 
  68   0.0000       0.325065         8.8455 
  69   0.0000       0.355436         9.6719 
  70   0.0000       0.391039        10.6407 
  71   0.0000       0.403781        10.9874 
  72   0.0000       0.416819        11.3422 
  73   0.0000       0.421910        11.4807 
  74   0.0000       0.430196        11.7062 
  75   0.0000       0.431591        11.7442 
  76   0.0000       0.436226        11.8703 
  77   0.0000       0.443632        12.0718 
  78   0.0000       0.446994        12.1633 
  79   0.0000       0.451195        12.2776 
  80   0.0000       0.483305        13.1514 
  81   0.0000       0.486145        13.2287 
  82   0.0000       0.493909        13.4399 
  83   0.0000       0.515489        14.0272 
  84   0.0000       0.518903        14.1201 
  85   0.0000       0.525005        14.2861 
  86   0.0000       0.527864        14.3639 
  87   0.0000       0.541168        14.7259 
  88   0.0000       0.551698        15.0125 
  89   0.0000       0.562711        15.3121 
  90   0.0000       0.573386        15.6026 
  91   0.0000       0.583570        15.8797 
  92   0.0000       0.590642        16.0722 
  93   0.0000       0.617648        16.8071 
  94   0.0000       0.626973        17.0608 
  95   0.0000       0.632773        17.2186 
  96   0.0000       0.648391        17.6436 
  97   0.0000       0.659471        17.9451 
  98   0.0000       0.681915        18.5559 
  99   0.0000       0.697128        18.9698 
 100   0.0000       0.714111        19.4319 
 101   0.0000       0.721140        19.6232 
 102   0.0000       0.771747        21.0003 
 103   0.0000       0.784177        21.3385 
 104   0.0000       0.792717        21.5709 
 105   0.0000       0.860212        23.4076 
 106   0.0000       0.867447        23.6044 
 107   0.0000       0.881195        23.9785 
 108   0.0000       0.889801        24.2127 
 109   0.0000       0.894459        24.3395 
 110   0.0000       0.908332        24.7170 
 111   0.0000       0.910904        24.7869 
 112   0.0000       0.918074        24.9821 
 113   0.0000       0.945336        25.7239 
 114   0.0000       0.967708        26.3327 
 115   0.0000       0.984006        26.7762 
 116   0.0000       1.024733        27.8844 
 117   0.0000       1.068094        29.0643 
 118   0.0000       1.070993        29.1432 
 119   0.0000       1.087117        29.5820 
 120   0.0000       1.094342        29.7786 
 121   0.0000       1.100606        29.9490 
 122   0.0000       1.122941        30.5568 
 123   0.0000       1.230498        33.4835 
 124   0.0000       1.234948        33.6046 
 125   0.0000       1.292268        35.1644 
 126   0.0000       1.302665        35.4473 
 127   0.0000       1.318723        35.8843 
 128   0.0000       1.383021        37.6339 
 129   0.0000       1.415671        38.5224 
 130   0.0000       1.488141        40.4944 
 131   0.0000       1.564503        42.5723 
 132   0.0000       1.573190        42.8087 
 133   0.0000       1.586909        43.1820 
 134   0.0000       1.596924        43.4545 
 135   0.0000       1.638593        44.5884 
 136   0.0000       1.750426        47.6315 
 137   0.0000       1.781369        48.4735 
 138   0.0000       1.793974        48.8165 
 139   0.0000       1.879135        51.1339 
 140   0.0000       1.884270        51.2736 
 141   0.0000       1.897880        51.6439 
 142   0.0000       1.929759        52.5114 
 143   0.0000       1.932923        52.5975 
 144   0.0000       1.935865        52.6776 
 145   0.0000       1.953647        53.1615 
 146   0.0000       1.959634        53.3244 
 147   0.0000       1.965391        53.4810 
 148   0.0000       1.983189        53.9653 
 149   0.0000       2.003023        54.5050 
 150   0.0000       2.020440        54.9790 
 151   0.0000       2.026138        55.1340 
 152   0.0000       2.031769        55.2872 
 153   0.0000       2.042250        55.5724 
 154   0.0000       2.089564        56.8599 
 155   0.0000       2.097351        57.0718 
 156   0.0000       2.101145        57.1751 
 157   0.0000       2.104723        57.2724 
 158   0.0000       2.110045        57.4172 
 159   0.0000       2.115970        57.5785 
 160   0.0000       2.128037        57.9068 
 161   0.0000       2.135378        58.1066 
 162   0.0000       2.151101        58.5344 
 163   0.0000       2.172587        59.1191 
 164   0.0000       2.177337        59.2483 
 165   0.0000       2.185543        59.4716 
 166   0.0000       2.205480        60.0142 
 167   0.0000       2.211065        60.1661 
 168   0.0000       2.228818        60.6492 
 169   0.0000       2.232975        60.7623 
 170   0.0000       2.241013        60.9811 
 171   0.0000       2.243957        61.0612 
 172   0.0000       2.258164        61.4478 
 173   0.0000       2.260533        61.5122 
 174   0.0000       2.266069        61.6629 
 175   0.0000       2.280419        62.0533 
 176   0.0000       2.282892        62.1207 
 177   0.0000       2.306469        62.7622 
 178   0.0000       2.319700        63.1222 
 179   0.0000       2.330428        63.4142 
 180   0.0000       2.364253        64.3346 
 181   0.0000       2.371452        64.5305 
 182   0.0000       2.375248        64.6338 
 183   0.0000       2.383298        64.8528 
 184   0.0000       2.393427        65.1285 
 185   0.0000       2.405582        65.4592 
 186   0.0000       2.409762        65.5730 
 187   0.0000       2.416141        65.7465 
 188   0.0000       2.429205        66.1020 
 189   0.0000       2.444235        66.5110 
 190   0.0000       2.446737        66.5791 
 191   0.0000       2.463389        67.0322 
 192   0.0000       2.471039        67.2404 
 193   0.0000       2.484816        67.6153 
 194   0.0000       2.507645        68.2365 
 195   0.0000       2.524598        68.6978 
 196   0.0000       2.544831        69.2484 
 197   0.0000       2.591508        70.5185 
 198   0.0000       2.609703        71.0136 
 199   0.0000       2.626395        71.4678 
 200   0.0000       2.641000        71.8653 
 201   0.0000       2.654644        72.2365 
 202   0.0000       2.666019        72.5461 
 203   0.0000       2.777152        75.5701 
 204   0.0000       2.785197        75.7891 
 205   0.0000       2.809211        76.4425 
 206   0.0000       2.835844        77.1673 
 207   0.0000       2.850371        77.5625 
 208   0.0000       2.878322        78.3231 
 209   0.0000       2.927362        79.6576 
 210   0.0000       2.943727        80.1029 
 211   0.0000       3.057654        83.2030 
 212   0.0000       3.143016        85.5258 
 213   0.0000       3.148112        85.6645 
 214   0.0000       3.227487        87.8244 
 215   0.0000       3.243100        88.2492 
 216   0.0000       3.303779        89.9004 
 217   0.0000       3.395456        92.3951 
 218   0.0000       3.415063        92.9286 
 219   0.0000       3.554465        96.7219 
 220   0.0000       3.581876        97.4678 
 221   0.0000       3.590388        97.6994 
 222   0.0000       3.781050       102.8876 
 223   0.0000       3.785802       103.0169 
 224   0.0000       3.927749       106.8795 
 225   0.0000       4.191431       114.0546 
 226   0.0000       4.204033       114.3976 
 227   0.0000       4.431675       120.5920 
 228   0.0000       4.453432       121.1840 
 229   0.0000       4.849825       131.9705 
 230   0.0000       4.855954       132.1372 
 231   0.0000       4.954036       134.8062 
 232   0.0000       4.971945       135.2935 
 233   0.0000       5.109321       139.0317 
 234   0.0000       5.129719       139.5868 
 235   0.0000       5.145048       140.0039 
 236   0.0000       5.328383       144.9927 
 237   0.0000       5.531465       150.5188 
 238   0.0000       5.544273       150.8673 
 239   0.0000       5.867454       159.6616 
 240   0.0000      11.039677       300.4049 
 241   0.0000      11.043285       300.5031 
 242   0.0000      11.056422       300.8605 
 243   0.0000      11.086321       301.6741 
 244   0.0000      11.104181       302.1601 
 245   0.0000      11.109680       302.3097 
 246   0.0000      11.166991       303.8693 
 247   0.0000      11.207447       304.9701 
 248   0.0000      11.216900       305.2274 
 249   0.0000      22.671633       616.9265 
 250   0.0000      25.281811       687.9531 
 251   0.0000      25.375104       690.4917 
 252   0.0000      25.488573       693.5793 
 253   0.0000      32.428705       882.4299 
 254   0.0000      35.566242       967.8066 
 255   0.0000      35.815681       974.5942 
 256   0.0000      35.828835       974.9522 
 257   0.0000      35.923364       977.5244 
 258   0.0000     123.629955      3364.1421 

                    ********************************
                    * MULLIKEN POPULATION ANALYSIS *
                    ********************************

-----------------------
MULLIKEN ATOMIC CHARGES
-----------------------
   0 C :   -0.264458
   1 N :   -0.320994
   2 H :    0.160823
   3 H :    0.158992
   4 H :    0.160557
   5 H :    0.294553
   6 H :    0.298732
   7 H :    0.298224
   8 Pb:    0.775289
   9 Cl:   -0.516643
  10 Cl:   -0.523727
  11 Cl:   -0.521347
Sum of atomic charges:   -0.0000000

--------------------------------
MULLIKEN REDUCED ORBITAL CHARGES
--------------------------------
  0 C s       :     3.283799  s :     3.283799
      pz      :     0.978555  p :     2.905378
      px      :     0.990793
      py      :     0.936030
      dz2     :     0.006914  d :     0.069126
      dxz     :     0.018354
      dyz     :     0.017983
      dx2y2   :     0.007698
      dxy     :     0.018178
      f0      :     0.000358  f :     0.006155
      f+1     :     0.000505
      f-1     :     0.000737
      f+2     :     0.000767
      f-2     :     0.002650
      f+3     :     0.000518
      f-3     :     0.000620
  1 N s       :     3.433769  s :     3.433769
      pz      :     1.278796  p :     3.838542
      px      :     1.288436
      py      :     1.271309
      dz2     :     0.005554  d :     0.046560
      dxz     :     0.012154
      dyz     :     0.011137
      dx2y2   :     0.006158
      dxy     :     0.011555
      f0      :     0.000107  f :     0.002124
      f+1     :     0.000162
      f-1     :     0.000192
      f+2     :     0.000210
      f-2     :     0.001128
      f+3     :     0.000158
      f-3     :     0.000167
  2 H s       :     0.817398  s :     0.817398
      pz      :     0.008299  p :     0.021779
      px      :     0.007804
      py      :     0.005676
  3 H s       :     0.819276  s :     0.819276
      pz      :     0.006925  p :     0.021732
      px      :     0.007324
      py      :     0.007483
  4 H s       :     0.817657  s :     0.817657
      pz      :     0.006784  p :     0.021786
      px      :     0.007442
      py      :     0.007560
  5 H s       :     0.666583  s :     0.666583
      pz      :     0.009717  p :     0.038864
      px      :     0.012448
      py      :     0.016698
  6 H s       :     0.654345  s :     0.654345
      pz      :     0.018732  p :     0.046923
      px      :     0.012083
      py      :     0.016108
  7 H s       :     0.656211  s :     0.656211
      pz      :     0.016983  p :     0.045565
      px      :     0.020043
      py      :     0.008539
  8 Pbs       :     3.932428  s :     3.932428
      pz      :     2.370306  p :     7.058446
      px      :     2.340915
      py      :     2.347225
      dz2     :     2.032005  d :    10.160365
      dxz     :     2.032778
      dyz     :     2.031414
      dx2y2   :     2.030677
      dxy     :     2.033490
      f0      :     0.014000  f :     0.073472
      f+1     :     0.010185
      f-1     :     0.011556
      f+2     :     0.007193
      f-2     :     0.005154
      f+3     :     0.013383
      f-3     :     0.011999
  9 Cls       :     5.953669  s :     5.953669
      pz      :     3.882646  p :    11.538986
      px      :     3.729785
      py      :     3.926555
      dz2     :     0.004236  d :     0.022971
      dxz     :     0.004763
      dyz     :     0.002484
      dx2y2   :     0.007827
      dxy     :     0.003661
      f0      :     0.000064  f :     0.001018
      f+1     :     0.000192
      f-1     :     0.000102
      f+2     :     0.000160
      f-2     :     0.000077
      f+3     :     0.000268
      f-3     :     0.000154
 10 Cls       :     5.953792  s :     5.953792
      pz      :     3.931908  p :    11.546537
      px      :     3.859456
      py      :     3.755173
      dz2     :     0.003209  d :     0.022435
      dxz     :     0.003252
      dyz     :     0.002479
      dx2y2   :     0.007545
      dxy     :     0.005950
      f0      :     0.000108  f :     0.000963
      f+1     :     0.000072
      f-1     :     0.000156
      f+2     :     0.000115
      f-2     :     0.000072
      f+3     :     0.000293
      f-3     :     0.000148
 11 Cls       :     5.953293  s :     5.953293
      pz      :     3.745547  p :    11.546386
      px      :     3.938424
      py      :     3.862416
      dz2     :     0.009292  d :     0.020739
      dxz     :     0.002580
      dyz     :     0.005562
      dx2y2   :     0.001911
      dxy     :     0.001394
      f0      :     0.000304  f :     0.000930
      f+1     :     0.000124
      f-1     :     0.000303
      f+2     :     0.000078
      f-2     :     0.000057
      f+3     :     0.000036
      f-3     :     0.000028


                     *******************************
                     * LOEWDIN POPULATION ANALYSIS *
                     *******************************

----------------------
LOEWDIN ATOMIC CHARGES
----------------------
   0 C :   -0.272133
   1 N :    0.067738
   2 H :    0.126532
   3 H :    0.125716
   4 H :    0.126929
   5 H :    0.178396
   6 H :    0.143994
   7 H :    0.150469
   8 Pb:   -0.104816
   9 Cl:   -0.172496
  10 Cl:   -0.182254
  11 Cl:   -0.188075

-------------------------------
LOEWDIN REDUCED ORBITAL CHARGES
-------------------------------
  0 C s       :     2.853067  s :     2.853067
      pz      :     1.032275  p :     3.079286
      px      :     1.041954
      py      :     1.005056
      dz2     :     0.028610  d :     0.302733
      dxz     :     0.079060
      dyz     :     0.081848
      dx2y2   :     0.032649
      dxy     :     0.080566
      f0      :     0.005246  f :     0.037047
      f+1     :     0.003935
      f-1     :     0.005693
      f+2     :     0.004398
      f-2     :     0.007027
      f+3     :     0.004909
      f-3     :     0.005840
  1 N s       :     3.001142  s :     3.001142
      pz      :     1.252164  p :     3.761076
      px      :     1.257421
      py      :     1.251491
      dz2     :     0.017422  d :     0.160530
      dxz     :     0.042458
      dyz     :     0.040611
      dx2y2   :     0.019288
      dxy     :     0.040751
      f0      :     0.001447  f :     0.009514
      f+1     :     0.001125
      f-1     :     0.001425
      f+2     :     0.001032
      f-2     :     0.001729
      f+3     :     0.001251
      f-3     :     0.001505
  2 H s       :     0.811128  s :     0.811128
      pz      :     0.022883  p :     0.062339
      px      :     0.021742
      py      :     0.017714
  3 H s       :     0.812002  s :     0.812002
      pz      :     0.019426  p :     0.062282
      px      :     0.022270
      py      :     0.020586
  4 H s       :     0.810717  s :     0.810717
      pz      :     0.020801  p :     0.062355
      px      :     0.020821
      py      :     0.020733
  5 H s       :     0.706182  s :     0.706182
      pz      :     0.032082  p :     0.115422
      px      :     0.037147
      py      :     0.046193
  6 H s       :     0.710858  s :     0.710858
      pz      :     0.055694  p :     0.145148
      px      :     0.040298
      py      :     0.049156
  7 H s       :     0.710059  s :     0.710059
      pz      :     0.051841  p :     0.139472
      px      :     0.059547
      py      :     0.028084
  8 Pbs       :     3.690789  s :     3.690789
      pz      :     2.525504  p :     7.525397
      px      :     2.502356
      py      :     2.497537
      dz2     :     2.156605  d :    10.667587
      dxz     :     2.106793
      dyz     :     2.121023
      dx2y2   :     2.153574
      dxy     :     2.129592
      f0      :     0.040471  f :     0.221043
      f+1     :     0.028152
      f-1     :     0.040991
      f+2     :     0.020272
      f-2     :     0.012724
      f+3     :     0.049336
      f-3     :     0.029097
  9 Cls       :     5.733065  s :     5.733065
      pz      :     3.822933  p :    11.394497
      px      :     3.705943
      py      :     3.865622
      dz2     :     0.009074  d :     0.042459
      dxz     :     0.005334
      dyz     :     0.004296
      dx2y2   :     0.018769
      dxy     :     0.004984
      f0      :     0.000140  f :     0.002475
      f+1     :     0.000549
      f-1     :     0.000282
      f+2     :     0.000287
      f-2     :     0.000131
      f+3     :     0.000793
      f-3     :     0.000294
 10 Cls       :     5.736534  s :     5.736534
      pz      :     3.869593  p :    11.401075
      px      :     3.797821
      py      :     3.733662
      dz2     :     0.007314  d :     0.042244
      dxz     :     0.004833
      dyz     :     0.002744
      dx2y2   :     0.016429
      dxy     :     0.010924
      f0      :     0.000155  f :     0.002399
      f+1     :     0.000134
      f-1     :     0.000506
      f+2     :     0.000278
      f-2     :     0.000085
      f+3     :     0.000917
      f-3     :     0.000324
 11 Cls       :     5.739055  s :     5.739055
      pz      :     3.720536  p :    11.408736
      px      :     3.882594
      py      :     3.805605
      dz2     :     0.023076  d :     0.038097
      dxz     :     0.002692
      dyz     :     0.008606
      dx2y2   :     0.002195
      dxy     :     0.001528
      f0      :     0.000948  f :     0.002187
      f+1     :     0.000160
      f-1     :     0.000807
      f+2     :     0.000103
      f-2     :     0.000063
      f+3     :     0.000065
      f-3     :     0.000042


                      *****************************
                      * MAYER POPULATION ANALYSIS *
                      *****************************

  NA   - Mulliken gross atomic population
  ZA   - Total nuclear charge
  QA   - Mulliken gross atomic charge
  VA   - Mayer's total valence
  BVA  - Mayer's bonded valence
  FA   - Mayer's free valence

  ATOM       NA         ZA         QA         VA         BVA        FA
  0 C      6.2645     6.0000    -0.2645     3.8412     3.8412     0.0000
  1 N      7.3210     7.0000    -0.3210     3.3062     3.3062     0.0000
  2 H      0.8392     1.0000     0.1608     0.9622     0.9622     0.0000
  3 H      0.8410     1.0000     0.1590     0.9616     0.9616    -0.0000
  4 H      0.8394     1.0000     0.1606     0.9639     0.9639    -0.0000
  5 H      0.7054     1.0000     0.2946     0.9530     0.9530     0.0000
  6 H      0.7013     1.0000     0.2987     0.9637     0.9637    -0.0000
  7 H      0.7018     1.0000     0.2982     0.9617     0.9617     0.0000
  8 Pb    21.2247    22.0000     0.7753     2.0089     2.0089    -0.0000
  9 Cl    17.5166    17.0000    -0.5166     0.8256     0.8256     0.0000
 10 Cl    17.5237    17.0000    -0.5237     0.8120     0.8120    -0.0000
 11 Cl    17.5213    17.0000    -0.5213     0.8138     0.8138     0.0000

  Mayer bond orders larger than 0.1
B(  0-C ,  1-N ) :   0.8997 B(  0-C ,  2-H ) :   0.9701 B(  0-C ,  3-H ) :   0.9693 
B(  0-C ,  4-H ) :   0.9700 B(  1-N ,  5-H ) :   0.8360 B(  1-N ,  6-H ) :   0.7908 
B(  1-N ,  7-H ) :   0.8030 B(  5-H , 11-Cl) :   0.1115 B(  6-H ,  9-Cl) :   0.1787 
B(  7-H , 10-Cl) :   0.1601 B(  8-Pb,  9-Cl) :   0.6443 B(  8-Pb, 10-Cl) :   0.6404 
B(  8-Pb, 11-Cl) :   0.6926 

-------
TIMINGS
-------

Total SCF time: 0 days 0 hours 5 min 18 sec 

Total time                  ....     318.420 sec
Sum of individual times     ....     291.925 sec  ( 91.7%)

Fock matrix formation       ....     286.739 sec  ( 90.1%)
  Coulomb formation         ....     238.588 sec  ( 83.2% of F)
  Split-RI-J                ....      17.152 sec  (  6.0% of F)
  Chain of spheres X        ....     247.086 sec  ( 86.2% of F)
  XC integration            ....      48.192 sec  ( 16.8% of F)
    Basis function eval.    ....      15.160 sec  ( 31.5% of XC)
    Density eval.           ....      13.533 sec  ( 28.1% of XC)
    XC-Functional eval.     ....       2.855 sec  (  5.9% of XC)
    XC-Potential eval.      ....      15.849 sec  ( 32.9% of XC)
Diagonalization             ....       0.538 sec  (  0.2%)
Density matrix formation    ....       0.044 sec  (  0.0%)
Population analysis         ....       0.067 sec  (  0.0%)
Initial guess               ....       0.272 sec  (  0.1%)
Orbital Transformation      ....       0.000 sec  (  0.0%)
Orbital Orthonormalization  ....       0.265 sec  (  0.1%)
DIIS solution               ....       0.152 sec  (  0.0%)
SOSCF solution              ....       0.068 sec  (  0.0%)
Grid generation             ....       4.045 sec  (  1.3%)

------------------------------------------------------------------------------
                              ORCA MP2 CALCULATION
------------------------------------------------------------------------------


----------------------
RI-MP2 ENERGY+GRADIENT
----------------------
Dimension of the basis                    ...  259
Memory devoted to MP2                     ... 1000 MB   
Data format for buffers                   ... DOUBLE
Compression type for matrix containers    ... UNCOMPRESSED
Overall scaling of the MP2 energy         ...   2.700e-01 Eh
Calculating two index integrals           ... done (    0.018 sec)
Cholesky decomposition of the V-matrix    ... done
Cholesky decomposition of V**-1           ... done (    0.046 sec)

-----------------
RI-TRANSFORMATION (AUX index driven)
-----------------

Dimension of the orbital-basis         ... 259
Dimension of the aux-basis             ... 493
Transformation of internal MOs         ...    0-  45
Transformation of internal/external MOs...    0-  45 to   46- 258
Number Format for Storage              ... Double (8 Byte)
Integral mode                          ... Direct

First Phase: integral generation and transformation of MO indices
  Aux angular momentum 0               ... done (    0.682 sec)
  Aux angular momentum 1               ... done (    0.330 sec)
  Aux angular momentum 2               ... done (    0.393 sec)
  Aux angular momentum 3               ... done (    0.227 sec)
  Aux angular momentum 4               ... done (    0.198 sec)
Closing buffer VIJ ( 0.00 GB; CompressionRatio= 1.95)
Closing buffer VIA ( 0.04 GB; CompressionRatio= 1.00)
  Phase 1 completed in     2.009 sec
Second Phase: sorting and transformation of aux index

IJ-Transformation
Memory available                       ... 990 MB 
Max. # MO pairs treated in a batch     ... 46    
# of internal orbitals                 ... 46
# batches for internal orbitals        ... 1
Closing buffer IJV ( 0.00 GB; CompressionRatio= 1.00)
(ij|v) transformation done in     0.110 sec

IA-Transformation
Memory available                       ... 990 MB 
Max. # MO pairs treated in a batch     ... 46    
# of internal orbitals                 ... 46
# batches for internal orbitals        ... 1
Closing buffer IAV ( 0.04 GB; CompressionRatio= 1.00)
(ia|v) transformation done in     0.470 sec

  Phase 2 completed in     0.596 sec
RI-Integral transformation completed in     2.606 sec
Opening buffers                              ... done

Starting loop over batches of integrals:

Operator 0  - window                       ... (  0- 45)x( 46-258)
Operator 0  - Memory available             ...  1000 MB
Operator 0  - Memory needed per MO         ...   1.6 MB
Operator 0  - Number of orbitals per batch ... 46
Operator 0  - Number of batches            ... 1

OPERATOR  0   PASS   0:  MOs     0 ...   45
  Reading integrals       ... ok
  Internal MO   2
  Internal MO   5
  Internal MO   8
  Internal MO  11
  Internal MO  14
  Internal MO  17
  Internal MO  20
  Internal MO  23
  Internal MO  26
  Internal MO  29
  Internal MO  32
  Internal MO  35
  Internal MO  38
  Internal MO  41
  Internal MO  44
Closing buffer GIPV ( 0.04 GB; CompressionRatio= 1.00)
Time spent in pair loops =    50.586 sec

-----------------------------------------------
 RI-MP2 CORRELATION ENERGY:     -0.582185036 Eh
-----------------------------------------------


---------------------
MP2 DENSITY FORMATION
---------------------

Completing the external part of the density      ... done
Storing the unrelaxed density                    ... done

Calculating the xc-kernel                        ... done
Calculating G(D)                                 ... done
Completing the Lagrangian                        ... done
Solving the Z-vector equations                   ... 

------------------------------------------------------------------------------
                           ORCA CP-SCF CALCULATION
------------------------------------------------------------------------------

Input orbitals are from        ... PbMACl3_mp2_md2_23.orca.gbw
Input Perturbation             ... PbMACl3_mp2_md2_23.orca.pin.tmp
Wavefunction output            ... PbMACl3_mp2_md2_23.orca.pout.tmp
Perturbation mode              ... Real perturbation
Solver                         ... DIIS
   MaxDIIS                     ... 20
   Levelshift                  ...    3.000e-01 Eh
Max. number of iterations      ... 128
Convergence tolerance          ... 1.000e-08
Integral handling              ... Direct
COSX GridX                     ... 1
Number of perturbations        ... 1
Number of operators            ... 1
Orbital ranges used for CP-SCF:
 Operator 0:  Orbitals   0... 45  to  46...258
DFT calculation                         ... on
Exchange functional (SCF)               ... B88
Exchange functional (CP-SCF)            ... B88
   X-Alpha parameter    XAlpha (SCF)    ...  0.666667
   X-Alpha parameter    XAlpha (CP-SCF) ...  0.666667
   Becke's b parameter  XBeta (SCF)     ...  0.004200
   Becke's b parameter  XBeta (CP-SCF)  ...  0.004200
Correlation functional (SCF)            ... LYP
Correlation functional (CP-SCF)         ... LYP
 LDA part of GGA corr.  LDAOpt (SCF)    ... VWN-3
 LDA part of GGA corr.  LDAOpt (CP-SCF) ... VWN-3
Hybrid DFT                              ... on
   Exchange mixing (SCF)                ...  0.530
   Exchange mixing (CP-SCF)             ...  0.530
   GGA exch. scaling(SCF)               ...  0.470
   GGA exch. scaling (CP-SCF)           ...  0.470
   GGA corr. scaling (SCF)              ...  0.730
   GGA corr. scaling (CP-SCF)           ...  0.730
The RIJCOSX approximation is active
Variables per vector in CP-SCF ... 9798
Number of vectors sought       ... 1
Calculating the xc-kernel      ... done

Solving the CP-SCF equations by a DIIS algorithm

-----------------
CP-SCF ITERATIONS
-----------------
  Iteration   0: MaxR=  0.089315100
  Iteration   1: MaxR=  0.042655541
  Iteration   2: MaxR=  0.011928513
  Iteration   3: MaxR=  0.004780346
  Iteration   4: MaxR=  0.002147824
  Iteration   5: MaxR=  0.000837666
  Iteration   6: MaxR=  0.000338798
  Iteration   7: MaxR=  0.000099975
  Iteration   8: MaxR=  0.000036296
  Iteration   9: MaxR=  0.000009652
  Iteration  10: MaxR=  0.000003605
  Iteration  11: MaxR=  0.000001357
  Iteration  12: MaxR=  0.000000623
  Iteration  13: MaxR=  0.000000184
  Iteration  14: MaxR=  0.000000067
  Iteration  15: MaxR=  0.000000025
  Iteration  16: MaxR=  0.000000009
                              *** THE CP-SCF HAS CONVERGED *** 
done
Finalizing the relaxed density                   ... done
Transforming P to the AO basis                   ... done
Storing the relaxed density                      ... done

------------------------------------
ENERGY WEIGHTED DENSITY FINALIZATION
------------------------------------

Gathering the parts of the W-matrix              ... done
Forming the Z-density                            ... done
Transforming Z to the AO basis                   ... done
Calculating G(Z)                                 ... done
Finalizing the W-matrix                          ... done
Transforming W to the AO basis and storing       ... done
Entering the RIJONX and RIJCOSX sections
Starting the three-index derivative integrals:
Operator 0  - Memory available             ...  1000 MB
Operator 0  - Memory needed per MO         ...   1.0 MB
Operator 0  - Number of orbitals per batch ... 46
Operator 0  - Number of batches            ... 1

OPERATOR  0   PASS   0:  MOs     0 ...   45

----------------------------------
MP2 DERIVATIVE INTEGRAL GENERATION
----------------------------------


Input Correlated Electron Density   ... PbMACl3_mp2_md2_23.orca.pmp2re
Input Energy Weighted Density       ... PbMACl3_mp2_md2_23.orca.wmp2.tmp
Input SCF Electron Density          ... PbMACl3_mp2_md2_23.orca.scfp.tmp

One-Electron Terms    ...
  ECP gradient                                           ... One-Electron Terms done

-----------------------------------------------------------
MP2 COSX Grid Generation
-----------------------------------------------------------

General Integration Accuracy     IntAcc      ...  4.340
Radial Grid Type                 RadialGrid  ... Gauss-Chebyshev
Angular Grid (max. acc.)         AngularGrid ... Lebedev-302
Angular grid pruning method      GridPruning ... 3 (G Style)
Weight generation scheme         WeightScheme... Becke
Basis function cutoff            BFCut       ...    1.0000e-11
Integration weight cutoff        WCut        ...    1.0000e-14
Grids for H and He will be reduced by one unit

# of grid points (after initial pruning)     ...  57718 (   0.0 sec)
# of grid points (after weights+screening)   ...  54275 (   0.1 sec)
nearest neighbour list constructed           ...    0.0 sec
Grid point re-assignment to atoms done       ...    0.0 sec
Grid point division into batches done        ...    0.2 sec
Reduced shell lists constructed in    1.0 sec

Total number of grid points                  ...    54275
Total number of batches                      ...      854
Average number of points per batch           ...       63
Average number of grid points per atom       ...     4523
Average number of shells per batch           ...    57.95 (57.38%)
Average number of basis functions per batch  ...   154.13 (59.51%)
Average number of large shells per batch     ...    44.13 (76.15%)
Average number of large basis fcns per batch ...   114.36 (74.20%)
Maximum spatial batch extension              ...  40.43, 35.78, 32.85 au
Average spatial batch extension              ...   3.05,  3.07,  3.05 au

Overlap Fitting                  UseSFitting ... on
Two electron COSX terms .... 
Integration Timings:
Total Time                  =   106.6 sec
Basis fcn evaluation        =     0.3 sec
Density evaluation          =     1.0 sec
Integral evaluation         =   103.2 sec
K(P) evaluation             =     0.9 sec
                          .... COSX two electron terms done
COSX two-electron contribution to the gradient
     0:    -0.019865    -0.022557    -0.021244
     1:     0.063539     0.064844     0.045573
     2:     0.100609    -0.081985     0.107792
     3:    -0.103683     0.097688     0.089311
     4:     0.096111     0.099891    -0.096910
     5:    -0.114664    -0.114184     0.097112
     6:     0.087239    -0.109933    -0.095385
     7:    -0.108185     0.071586    -0.118408
     8:    -0.028611    -0.025485    -0.039814
     9:     0.067008    -0.001332    -0.025556
    10:    -0.037342     0.056907    -0.007935
    11:    -0.001518    -0.035551     0.065767
Exchange-correlation gradient    ... done
Dispersion correction            ... 
Entering the calculation of the dispersion correction...

Checking the input atom types...

Done
done

                *********************************************
                * UNRELAXED MP2 DENSITY POPULATION ANALYSIS *
                *********************************************

------------------------------------------------------------------------------
                           ORCA POPULATION ANALYSIS
------------------------------------------------------------------------------
Input electron density              ... PbMACl3_mp2_md2_23.orca.pmp2ur
BaseName (.gbw .S,...)              ... PbMACl3_mp2_md2_23.orca

                    ********************************
                    * MULLIKEN POPULATION ANALYSIS *
                    ********************************

-----------------------
MULLIKEN ATOMIC CHARGES
-----------------------
   0 C :   -0.268818
   1 N :   -0.319970
   2 H :    0.161842
   3 H :    0.160013
   4 H :    0.161569
   5 H :    0.293462
   6 H :    0.297219
   7 H :    0.296878
   8 Pb:    0.760435
   9 Cl:   -0.510311
  10 Cl:   -0.517399
  11 Cl:   -0.514920
Sum of atomic charges:   -0.0000000

--------------------------------
MULLIKEN REDUCED ORBITAL CHARGES
--------------------------------
  0 C s       :     3.282569  s :     3.282569
      pz      :     0.977121  p :     2.901268
      px      :     0.989248
      py      :     0.934899
      dz2     :     0.008934  d :     0.077687
      dxz     :     0.019925
      dyz     :     0.019457
      dx2y2   :     0.009693
      dxy     :     0.019678
      f0      :     0.000515  f :     0.007294
      f+1     :     0.000679
      f-1     :     0.000908
      f+2     :     0.000949
      f-2     :     0.002774
      f+3     :     0.000684
      f-3     :     0.000785
  1 N s       :     3.431492  s :     3.431492
      pz      :     1.275143  p :     3.827533
      px      :     1.284787
      py      :     1.267603
      dz2     :     0.007896  d :     0.057773
      dxz     :     0.014314
      dyz     :     0.013325
      dx2y2   :     0.008516
      dxy     :     0.013723
      f0      :     0.000252  f :     0.003172
      f+1     :     0.000313
      f-1     :     0.000346
      f+2     :     0.000367
      f-2     :     0.001270
      f+3     :     0.000307
      f-3     :     0.000318
  2 H s       :     0.815373  s :     0.815373
      pz      :     0.008622  p :     0.022785
      px      :     0.008131
      py      :     0.006032
  3 H s       :     0.817245  s :     0.817245
      pz      :     0.007261  p :     0.022742
      px      :     0.007666
      py      :     0.007815
  4 H s       :     0.815641  s :     0.815641
      pz      :     0.007129  p :     0.022790
      px      :     0.007771
      py      :     0.007890
  5 H s       :     0.667056  s :     0.667056
      pz      :     0.009926  p :     0.039483
      px      :     0.012644
      py      :     0.016913
  6 H s       :     0.655195  s :     0.655195
      pz      :     0.018973  p :     0.047586
      px      :     0.012291
      py      :     0.016322
  7 H s       :     0.656918  s :     0.656918
      pz      :     0.017162  p :     0.046204
      px      :     0.020253
      py      :     0.008788
  8 Pbs       :     3.913465  s :     3.913465
      pz      :     2.378490  p :     7.083950
      px      :     2.349609
      py      :     2.355851
      dz2     :     2.026471  d :    10.132506
      dxz     :     2.027265
      dyz     :     2.025822
      dx2y2   :     2.025067
      dxy     :     2.027881
      f0      :     0.019159  f :     0.109645
      f+1     :     0.015387
      f-1     :     0.016638
      f+2     :     0.012423
      f-2     :     0.010354
      f+3     :     0.018418
      f-3     :     0.017265
  9 Cls       :     5.949110  s :     5.949110
      pz      :     3.867896  p :    11.495241
      px      :     3.715406
      py      :     3.911940
      dz2     :     0.012065  d :     0.062169
      dxz     :     0.012649
      dyz     :     0.010333
      dx2y2   :     0.015581
      dxy     :     0.011542
      f0      :     0.000457  f :     0.003791
      f+1     :     0.000594
      f-1     :     0.000489
      f+2     :     0.000559
      f-2     :     0.000472
      f+3     :     0.000664
      f-3     :     0.000556
 10 Cls       :     5.949233  s :     5.949233
      pz      :     3.917313  p :    11.502796
      px      :     3.844723
      py      :     3.740760
      dz2     :     0.010996  d :     0.061639
      dxz     :     0.011111
      dyz     :     0.010349
      dx2y2   :     0.015410
      dxy     :     0.013775
      f0      :     0.000495  f :     0.003731
      f+1     :     0.000458
      f-1     :     0.000543
      f+2     :     0.000515
      f-2     :     0.000467
      f+3     :     0.000696
      f-3     :     0.000558
 11 Cls       :     5.948702  s :     5.948702
      pz      :     3.731183  p :    11.502827
      px      :     3.923929
      py      :     3.847715
      dz2     :     0.017053  d :     0.059721
      dxz     :     0.010412
      dyz     :     0.013369
      dx2y2   :     0.009702
      dxy     :     0.009185
      f0      :     0.000706  f :     0.003669
      f+1     :     0.000523
      f-1     :     0.000706
      f+2     :     0.000467
      f-2     :     0.000447
      f+3     :     0.000415
      f-3     :     0.000406


                     *******************************
                     * LOEWDIN POPULATION ANALYSIS *
                     *******************************

----------------------
LOEWDIN ATOMIC CHARGES
----------------------
   0 C :   -0.275152
   1 N :    0.066821
   2 H :    0.127268
   3 H :    0.126450
   4 H :    0.127668
   5 H :    0.177790
   6 H :    0.143381
   7 H :    0.149873
   8 Pb:   -0.114786
   9 Cl:   -0.168088
  10 Cl:   -0.177772
  11 Cl:   -0.183451

-------------------------------
LOEWDIN REDUCED ORBITAL CHARGES
-------------------------------
  0 C s       :     2.852461  s :     2.852461
      pz      :     1.029894  p :     3.072235
      px      :     1.039499
      py      :     1.002843
      dz2     :     0.030406  d :     0.311647
      dxz     :     0.080869
      dyz     :     0.083617
      dx2y2   :     0.034415
      dxy     :     0.082340
      f0      :     0.005473  f :     0.038809
      f+1     :     0.004150
      f-1     :     0.005903
      f+2     :     0.004610
      f-2     :     0.007486
      f+3     :     0.005137
      f-3     :     0.006049
  1 N s       :     3.000648  s :     3.000648
      pz      :     1.248248  p :     3.749295
      px      :     1.253533
      py      :     1.247514
      dz2     :     0.019492  d :     0.172355
      dxz     :     0.045014
      dyz     :     0.043178
      dx2y2   :     0.021376
      dxy     :     0.043295
      f0      :     0.001630  f :     0.010882
      f+1     :     0.001304
      f-1     :     0.001601
      f+2     :     0.001211
      f-2     :     0.002019
      f+3     :     0.001436
      f-3     :     0.001681
  2 H s       :     0.808560  s :     0.808560
      pz      :     0.023531  p :     0.064172
      px      :     0.022358
      py      :     0.018283
  3 H s       :     0.809429  s :     0.809429
      pz      :     0.020006  p :     0.064121
      px      :     0.022913
      py      :     0.021201
  4 H s       :     0.808151  s :     0.808151
      pz      :     0.021415  p :     0.064181
      px      :     0.021415
      py      :     0.021350
  5 H s       :     0.705294  s :     0.705294
      pz      :     0.032537  p :     0.116916
      px      :     0.037648
      py      :     0.046730
  6 H s       :     0.710124  s :     0.710124
      pz      :     0.056109  p :     0.146495
      px      :     0.040751
      py      :     0.049636
  7 H s       :     0.709288  s :     0.709288
      pz      :     0.052324  p :     0.140839
      px      :     0.059988
      py      :     0.028527
  8 Pbs       :     3.674264  s :     3.674264
      pz      :     2.532147  p :     7.546374
      px      :     2.509548
      py      :     2.504678
      dz2     :     2.150568  d :    10.637192
      dxz     :     2.100844
      dyz     :     2.114880
      dx2y2   :     2.147463
      dxy     :     2.123437
      f0      :     0.045555  f :     0.256956
      f+1     :     0.033344
      f-1     :     0.045987
      f+2     :     0.025502
      f-2     :     0.017975
      f+3     :     0.054255
      f-3     :     0.034338
  9 Cls       :     5.728715  s :     5.728715
      pz      :     3.808710  p :    11.352296
      px      :     3.692208
      py      :     3.851378
      dz2     :     0.016981  d :     0.081759
      dxz     :     0.013204
      dyz     :     0.012153
      dx2y2   :     0.026624
      dxy     :     0.012796
      f0      :     0.000540  f :     0.005318
      f+1     :     0.000963
      f-1     :     0.000674
      f+2     :     0.000695
      f-2     :     0.000530
      f+3     :     0.001210
      f-3     :     0.000705
 10 Cls       :     5.732169  s :     5.732169
      pz      :     3.855372  p :    11.358841
      px      :     3.783693
      py      :     3.719776
      dz2     :     0.015156  d :     0.081526
      dxz     :     0.012680
      dyz     :     0.010561
      dx2y2   :     0.024285
      dxy     :     0.018843
      f0      :     0.000548  f :     0.005235
      f+1     :     0.000524
      f-1     :     0.000906
      f+2     :     0.000686
      f-2     :     0.000484
      f+3     :     0.001345
      f-3     :     0.000743
 11 Cls       :     5.734689  s :     5.734689
      pz      :     3.706764  p :    11.366554
      px      :     3.868410
      py      :     3.791379
      dz2     :     0.030901  d :     0.077210
      dxz     :     0.010467
      dyz     :     0.016489
      dx2y2   :     0.010023
      dxy     :     0.009330
      f0      :     0.001373  f :     0.004998
      f+1     :     0.000567
      f-1     :     0.001237
      f+2     :     0.000498
      f-2     :     0.000455
      f+3     :     0.000447
      f-3     :     0.000422


                      *****************************
                      * MAYER POPULATION ANALYSIS *
                      *****************************

  NA   - Mulliken gross atomic population
  ZA   - Total nuclear charge
  QA   - Mulliken gross atomic charge
  VA   - Mayer's total valence
  BVA  - Mayer's bonded valence
  FA   - Mayer's free valence

  ATOM       NA         ZA         QA         VA         BVA        FA
  0 C      6.2688     6.0000    -0.2688     3.8869     3.7720     0.1149
  1 N      7.3200     7.0000    -0.3200     3.3814     3.2350     0.1463
  2 H      0.8382     1.0000     0.1618     0.9649     0.9465     0.0184
  3 H      0.8400     1.0000     0.1600     0.9643     0.9458     0.0185
  4 H      0.8384     1.0000     0.1616     0.9666     0.9481     0.0184
  5 H      0.7065     1.0000     0.2935     0.9558     0.9349     0.0209
  6 H      0.7028     1.0000     0.2972     0.9666     0.9455     0.0210
  7 H      0.7031     1.0000     0.2969     0.9644     0.9437     0.0207
  8 Pb    21.2396    22.0000     0.7604     2.3163     1.9488     0.3674
  9 Cl    17.5103    17.0000    -0.5103     1.0606     0.8005     0.2601
 10 Cl    17.5174    17.0000    -0.5174     1.0478     0.7873     0.2604
 11 Cl    17.5149    17.0000    -0.5149     1.0495     0.7888     0.2607

  Mayer bond orders larger than 0.1
B(  0-C ,  1-N ) :   0.8774 B(  0-C ,  2-H ) :   0.9549 B(  0-C ,  3-H ) :   0.9541 
B(  0-C ,  4-H ) :   0.9548 B(  1-N ,  5-H ) :   0.8203 B(  1-N ,  6-H ) :   0.7760 
B(  1-N ,  7-H ) :   0.7881 B(  5-H , 11-Cl) :   0.1095 B(  6-H ,  9-Cl) :   0.1756 
B(  7-H , 10-Cl) :   0.1574 B(  8-Pb,  9-Cl) :   0.6248 B(  8-Pb, 10-Cl) :   0.6210 
B(  8-Pb, 11-Cl) :   0.6716 


                *******************************************
                * RELAXED MP2 DENSITY POPULATION ANALYSIS *
                *******************************************

------------------------------------------------------------------------------
                           ORCA POPULATION ANALYSIS
------------------------------------------------------------------------------
Input electron density              ... PbMACl3_mp2_md2_23.orca.pmp2re
BaseName (.gbw .S,...)              ... PbMACl3_mp2_md2_23.orca

                    ********************************
                    * MULLIKEN POPULATION ANALYSIS *
                    ********************************

-----------------------
MULLIKEN ATOMIC CHARGES
-----------------------
   0 C :   -0.286591
   1 N :   -0.313968
   2 H :    0.165256
   3 H :    0.163460
   4 H :    0.165009
   5 H :    0.287506
   6 H :    0.290408
   7 H :    0.290068
   8 Pb:    0.708241
   9 Cl:   -0.485943
  10 Cl:   -0.492953
  11 Cl:   -0.490492
Sum of atomic charges:   -0.0000000

--------------------------------
MULLIKEN REDUCED ORBITAL CHARGES
--------------------------------
  0 C s       :     3.285084  s :     3.285084
      pz      :     0.983661  p :     2.920910
      px      :     0.995381
      py      :     0.941868
      dz2     :     0.009113  d :     0.073468
      dxz     :     0.018381
      dyz     :     0.017929
      dx2y2   :     0.009880
      dxy     :     0.018164
      f0      :     0.000496  f :     0.007130
      f+1     :     0.000671
      f-1     :     0.000893
      f+2     :     0.000940
      f-2     :     0.002691
      f+3     :     0.000669
      f-3     :     0.000770
  1 N s       :     3.432350  s :     3.432350
      pz      :     1.273373  p :     3.821947
      px      :     1.283239
      py      :     1.265334
      dz2     :     0.008051  d :     0.056551
      dxz     :     0.013836
      dyz     :     0.012816
      dx2y2   :     0.008706
      dxy     :     0.013142
      f0      :     0.000248  f :     0.003120
      f+1     :     0.000312
      f-1     :     0.000347
      f+2     :     0.000367
      f-2     :     0.001225
      f+3     :     0.000303
      f-3     :     0.000319
  2 H s       :     0.812335  s :     0.812335
      pz      :     0.008441  p :     0.022409
      px      :     0.007982
      py      :     0.005986
  3 H s       :     0.814172  s :     0.814172
      pz      :     0.007161  p :     0.022368
      px      :     0.007528
      py      :     0.007679
  4 H s       :     0.812578  s :     0.812578
      pz      :     0.007022  p :     0.022412
      px      :     0.007642
      py      :     0.007747
  5 H s       :     0.673398  s :     0.673398
      pz      :     0.009831  p :     0.039096
      px      :     0.012524
      py      :     0.016741
  6 H s       :     0.662463  s :     0.662463
      pz      :     0.018801  p :     0.047129
      px      :     0.012162
      py      :     0.016166
  7 H s       :     0.664179  s :     0.664179
      pz      :     0.016965  p :     0.045754
      px      :     0.020023
      py      :     0.008766
  8 Pbs       :     3.928337  s :     3.928337
      pz      :     2.389139  p :     7.123743
      px      :     2.365602
      py      :     2.369002
      dz2     :     2.024514  d :    10.131725
      dxz     :     2.028641
      dyz     :     2.026509
      dx2y2   :     2.023723
      dxy     :     2.028338
      f0      :     0.018802  f :     0.107954
      f+1     :     0.015192
      f-1     :     0.016263
      f+2     :     0.012343
      f-2     :     0.010325
      f+3     :     0.017942
      f-3     :     0.017087
  9 Cls       :     5.949607  s :     5.949607
      pz      :     3.858347  p :    11.470243
      px      :     3.706685
      py      :     3.905210
      dz2     :     0.012132  d :     0.062282
      dxz     :     0.012578
      dyz     :     0.010481
      dx2y2   :     0.015454
      dxy     :     0.011636
      f0      :     0.000459  f :     0.003812
      f+1     :     0.000597
      f-1     :     0.000495
      f+2     :     0.000562
      f-2     :     0.000475
      f+3     :     0.000663
      f-3     :     0.000561
 10 Cls       :     5.949782  s :     5.949782
      pz      :     3.910714  p :    11.477675
      px      :     3.834974
      py      :     3.731987
      dz2     :     0.010946  d :     0.061745
      dxz     :     0.011256
      dyz     :     0.010382
      dx2y2   :     0.015584
      dxy     :     0.013577
      f0      :     0.000500  f :     0.003751
      f+1     :     0.000459
      f-1     :     0.000542
      f+2     :     0.000521
      f-2     :     0.000469
      f+3     :     0.000697
      f-3     :     0.000562
 11 Cls       :     5.949349  s :     5.949349
      pz      :     3.722462  p :    11.477811
      px      :     3.918050
      py      :     3.837299
      dz2     :     0.017103  d :     0.059650
      dxz     :     0.010470
      dyz     :     0.013139
      dx2y2   :     0.009718
      dxy     :     0.009220
      f0      :     0.000708  f :     0.003683
      f+1     :     0.000528
      f-1     :     0.000706
      f+2     :     0.000468
      f-2     :     0.000449
      f+3     :     0.000417
      f-3     :     0.000407


                     *******************************
                     * LOEWDIN POPULATION ANALYSIS *
                     *******************************

----------------------
LOEWDIN ATOMIC CHARGES
----------------------
   0 C :   -0.285194
   1 N :    0.062869
   2 H :    0.129172
   3 H :    0.128377
   4 H :    0.129574
   5 H :    0.176592
   6 H :    0.141867
   7 H :    0.148344
   8 Pb:   -0.140374
   9 Cl:   -0.155704
  10 Cl:   -0.165041
  11 Cl:   -0.170481

-------------------------------
LOEWDIN REDUCED ORBITAL CHARGES
-------------------------------
  0 C s       :     2.853787  s :     2.853787
      pz      :     1.034331  p :     3.085612
      px      :     1.043821
      py      :     1.007459
      dz2     :     0.030630  d :     0.307223
      dxz     :     0.079300
      dyz     :     0.081952
      dx2y2   :     0.034670
      dxy     :     0.080671
      f0      :     0.005454  f :     0.038572
      f+1     :     0.004130
      f-1     :     0.005885
      f+2     :     0.004576
      f-2     :     0.007384
      f+3     :     0.005107
      f-3     :     0.006037
  1 N s       :     3.002807  s :     3.002807
      pz      :     1.248736  p :     3.750767
      px      :     1.254268
      py      :     1.247763
      dz2     :     0.019735  d :     0.172597
      dxz     :     0.044957
      dyz     :     0.043086
      dx2y2   :     0.021665
      dxy     :     0.043153
      f0      :     0.001648  f :     0.010960
      f+1     :     0.001311
      f-1     :     0.001611
      f+2     :     0.001212
      f-2     :     0.002037
      f+3     :     0.001446
      f-3     :     0.001695
  2 H s       :     0.806584  s :     0.806584
      pz      :     0.023511  p :     0.064244
      px      :     0.022360
      py      :     0.018374
  3 H s       :     0.807423  s :     0.807423
      pz      :     0.020049  p :     0.064200
      px      :     0.022926
      py      :     0.021226
  4 H s       :     0.806183  s :     0.806183
      pz      :     0.021453  p :     0.064243
      px      :     0.021429
      py      :     0.021361
  5 H s       :     0.706545  s :     0.706545
      pz      :     0.032474  p :     0.116863
      px      :     0.037656
      py      :     0.046733
  6 H s       :     0.711812  s :     0.711812
      pz      :     0.056024  p :     0.146322
      px      :     0.040676
      py      :     0.049622
  7 H s       :     0.710998  s :     0.710998
      pz      :     0.052275  p :     0.140658
      px      :     0.059874
      py      :     0.028509
  8 Pbs       :     3.687432  s :     3.687432
      pz      :     2.536999  p :     7.567728
      px      :     2.519137
      py      :     2.511592
      dz2     :     2.147335  d :    10.630538
      dxz     :     2.101231
      dyz     :     2.114340
      dx2y2   :     2.144935
      dxy     :     2.122697
      f0      :     0.045131  f :     0.254675
      f+1     :     0.033036
      f-1     :     0.045565
      f+2     :     0.025340
      f-2     :     0.017842
      f+3     :     0.053705
      f-3     :     0.034057
  9 Cls       :     5.732042  s :     5.732042
      pz      :     3.802056  p :    11.335306
      px      :     3.686947
      py      :     3.846302
      dz2     :     0.017241  d :     0.082944
      dxz     :     0.013317
      dyz     :     0.012334
      dx2y2   :     0.027081
      dxy     :     0.012971
      f0      :     0.000548  f :     0.005413
      f+1     :     0.000980
      f-1     :     0.000682
      f+2     :     0.000710
      f-2     :     0.000535
      f+3     :     0.001242
      f-3     :     0.000716
 10 Cls       :     5.735444  s :     5.735444
      pz      :     3.850309  p :    11.341614
      px      :     3.776921
      py      :     3.714383
      dz2     :     0.015318  d :     0.082659
      dxz     :     0.012864
      dyz     :     0.010649
      dx2y2   :     0.024751
      dxy     :     0.019077
      f0      :     0.000554  f :     0.005325
      f+1     :     0.000530
      f-1     :     0.000924
      f+2     :     0.000694
      f-2     :     0.000488
      f+3     :     0.001382
      f-3     :     0.000753
 11 Cls       :     5.737972  s :     5.737972
      pz      :     3.701470  p :    11.349186
      px      :     3.863890
      py      :     3.783827
      dz2     :     0.031535  d :     0.078234
      dxz     :     0.010594
      dyz     :     0.016638
      dx2y2   :     0.010086
      dxy     :     0.009381
      f0      :     0.001402  f :     0.005088
      f+1     :     0.000576
      f-1     :     0.001275
      f+2     :     0.000503
      f-2     :     0.000459
      f+3     :     0.000449
      f-3     :     0.000425


                      *****************************
                      * MAYER POPULATION ANALYSIS *
                      *****************************

  NA   - Mulliken gross atomic population
  ZA   - Total nuclear charge
  QA   - Mulliken gross atomic charge
  VA   - Mayer's total valence
  BVA  - Mayer's bonded valence
  FA   - Mayer's free valence

  ATOM       NA         ZA         QA         VA         BVA        FA
  0 C      6.2866     6.0000    -0.2866     3.8890     3.7744     0.1146
  1 N      7.3140     7.0000    -0.3140     3.3898     3.2439     0.1459
  2 H      0.8347     1.0000     0.1653     0.9639     0.9456     0.0183
  3 H      0.8365     1.0000     0.1635     0.9633     0.9449     0.0184
  4 H      0.8350     1.0000     0.1650     0.9656     0.9473     0.0184
  5 H      0.7125     1.0000     0.2875     0.9621     0.9413     0.0208
  6 H      0.7096     1.0000     0.2904     0.9729     0.9520     0.0209
  7 H      0.7099     1.0000     0.2901     0.9709     0.9502     0.0206
  8 Pb    21.2918    22.0000     0.7082     2.3953     2.0331     0.3622
  9 Cl    17.4859    17.0000    -0.4859     1.1044     0.8456     0.2588
 10 Cl    17.4930    17.0000    -0.4930     1.0919     0.8328     0.2591
 11 Cl    17.4905    17.0000    -0.4905     1.0928     0.8336     0.2592

  Mayer bond orders larger than 0.1
B(  0-C ,  1-N ) :   0.8856 B(  0-C ,  2-H ) :   0.9521 B(  0-C ,  3-H ) :   0.9513 
B(  0-C ,  4-H ) :   0.9520 B(  1-N ,  5-H ) :   0.8169 B(  1-N ,  6-H ) :   0.7716 
B(  1-N ,  7-H ) :   0.7841 B(  5-H , 11-Cl) :   0.1188 B(  6-H ,  9-Cl) :   0.1865 
B(  7-H , 10-Cl) :   0.1681 B(  8-Pb,  9-Cl) :   0.6502 B(  8-Pb, 10-Cl) :   0.6471 
B(  8-Pb, 11-Cl) :   0.6998 


-------
TIMINGS
-------

Total time                :  518.312 sec
Integral trafo            :    2.614 sec (  0.5%)
I/O of integrals          :    0.106 sec (  0.0%)
K(i,j) Operators          :    8.358 sec (  1.6%)
T(i,j) pair energies      :    1.113 sec (  0.2%)
V-calculation             :    0.018 sec (  0.0%)
V**(-1/2)                 :    0.046 sec (  0.0%)
Gamma(ia|P)               :    8.144 sec (  1.6%)
Gamma-Trafo               :    1.096 sec (  0.2%)
D(virtual)                :    3.660 sec (  0.7%)
D(internal)               :    3.468 sec (  0.7%)
W(virtual)                :    7.317 sec (  1.4%)
W(internal)               :   12.237 sec (  2.4%)
L(virtual)                :    4.705 sec (  0.9%)
L(internal)               :    0.167 sec (  0.0%)
G(D)                      :   15.511 sec (  3.0%)
G(Z)                      :   15.581 sec (  3.0%)
Z-Vector Solution         :  306.344 sec ( 59.1%)
Z-Vector Solution         :  306.344 sec ( 59.1%)
3-Index Derivative 
+ Separable RIJ part      :    4.612 sec (  0.9%)
2-Index Derivative 
+ Separable RIJ part      :    0.035 sec (  0.0%)
Separable Gradient (COSX) :  120.432 sec ( 23.2%)


---------------------------------------
MP2 TOTAL ENERGY:    -1669.599597476 Eh
---------------------------------------

The final MP2 gradient
  0:  -0.00048042   0.00052899  -0.00142761
  1:   0.00469881  -0.00036394  -0.01487693
  2:   0.00267371  -0.00211422   0.00307796
  3:  -0.00267873   0.00249229   0.00277441
  4:   0.00284936   0.00343969  -0.00196816
  5:  -0.01121142  -0.00838374  -0.00106370
  6:  -0.00954035  -0.00702602  -0.00409657
  7:  -0.00194973  -0.00708074  -0.00655486
  8:   0.03115808   0.04407310   0.04088176
  9:  -0.02015819  -0.00304589   0.00305144
 10:   0.00752984  -0.02014032  -0.00104274
 11:  -0.00225133  -0.00248296  -0.01846295

-----------------------------------
NORM OF THE MP2 GRADIENT:  0.081168
-----------------------------------

Entering the calculation of the dispersion correction...

Checking the input atom types...

Done


-------------------------------------------------------------------------------
                          DFT DISPERSION CORRECTION                            
                                                                               
                                DFTD3 V2.1  Rev 6                               
                          USING Becke-Johnson damping                          
-------------------------------------------------------------------------------
The B2PLYP functional is recognized
Active option DFTDOPT                   ...         4   

molecular C6(AA) [au] = 4839.059696 


            DFT-D V3
 parameters
 s6 scaling factor         :     0.6400 
 a1 scaling factor         :     0.3065 
 s8 scaling factor         :     0.9147 
 a2 scaling factor         :     5.0570 
 ad hoc parameters k1-k3   :    16.0000     1.3333    -4.0000 

 Edisp/kcal,au: -9.009673333577  -0.014357826845 
 E6   /kcal   :  -4.132627715 
 E8   /kcal   :  -4.877045619 
 % E8         :  54.131214729 

-------------------------   ----------------
Dispersion correction           -0.014357827
-------------------------   ----------------


-------------------------   --------------------
FINAL SINGLE POINT ENERGY     -1669.613955303096
-------------------------   --------------------


                            ***************************************
                            *     ORCA property calculations      *
                            ***************************************


  WARNING: The energy has been calculated at the MP2 level but the densities
           used in the property calculations are still SCF densities
           MP2 response densities have not been calculated 
           use %mp2 Density relaxed end
           or  %mp2 Density unrelaxed end

                                    ---------------------
                                    Active property flags
                                    ---------------------
   (+) Dipole Moment


------------------------------------------------------------------------------
                       ORCA ELECTRIC PROPERTIES CALCULATION
------------------------------------------------------------------------------

Dipole Moment Calculation                       ... on
Quadrupole Moment Calculation                   ... off
Polarizability Calculation                      ... off
GBWName                                         ... PbMACl3_mp2_md2_23.orca.gbw
Electron density file                           ... PbMACl3_mp2_md2_23.orca.scfp.tmp

-------------
DIPOLE MOMENT
-------------
                                X             Y             Z
Electronic contribution:    -55.33482     -71.53215     -68.85869
Nuclear contribution   :     56.10340      72.82183      69.78831
                        -----------------------------------------
Total Dipole Moment    :      0.76858       1.28968       0.92962
                        -----------------------------------------
Magnitude (a.u.)       :      1.76583
Magnitude (Debye)      :      4.48839


                         *** MP2 UNRELAXED DENSITY ***

------------------------------------------------------------------------------
                       ORCA ELECTRIC PROPERTIES CALCULATION
------------------------------------------------------------------------------

Dipole Moment Calculation                       ... on
Quadrupole Moment Calculation                   ... off
Polarizability Calculation                      ... off
GBWName                                         ... PbMACl3_mp2_md2_23.orca.gbw
Electron density file                           ... PbMACl3_mp2_md2_23.orca.pmp2ur

-------------
DIPOLE MOMENT
-------------
                                X             Y             Z
Electronic contribution:    -55.33250     -71.53192     -68.85560
Nuclear contribution   :     56.10340      72.82183      69.78831
                        -----------------------------------------
Total Dipole Moment    :      0.77090       1.28991       0.93271
                        -----------------------------------------
Magnitude (a.u.)       :      1.76864
Magnitude (Debye)      :      4.49554


                           *** MP2 RELAXED DENSITY ***

------------------------------------------------------------------------------
                       ORCA ELECTRIC PROPERTIES CALCULATION
------------------------------------------------------------------------------

Dipole Moment Calculation                       ... on
Quadrupole Moment Calculation                   ... off
Polarizability Calculation                      ... off
GBWName                                         ... PbMACl3_mp2_md2_23.orca.gbw
Electron density file                           ... PbMACl3_mp2_md2_23.orca.pmp2re

-------------
DIPOLE MOMENT
-------------
                                X             Y             Z
Electronic contribution:    -55.35949     -71.57405     -68.88990
Nuclear contribution   :     56.10340      72.82183      69.78831
                        -----------------------------------------
Total Dipole Moment    :      0.74391       1.24777       0.89840
                        -----------------------------------------
Magnitude (a.u.)       :      1.70806
Magnitude (Debye)      :      4.34154


Timings for individual modules:

Sum of individual times         ...      842.670 sec (=  14.045 min)
GTO integral calculation        ...        2.752 sec (=   0.046 min)   0.3 %
SCF iterations                  ...      320.191 sec (=   5.337 min)  38.0 %
MP2 module                      ...      519.728 sec (=   8.662 min)  61.7 %
                             ****ORCA TERMINATED NORMALLY****
TOTAL RUN TIME: 0 days 0 hours 14 minutes 4 seconds 534 msec
