
                                 *****************
                                 * O   R   C   A *
                                 *****************

           --- An Ab Initio, DFT and Semiempirical electronic structure package ---

                  #######################################################
                  #                        -***-                        #
                  #  Department of molecular theory and spectroscopy    #
                  #              Directorship: Frank Neese              #
                  # Max Planck Institute for Chemical Energy Conversion #
                  #                  D-45470 Muelheim/Ruhr              #
                  #                       Germany                       #
                  #                                                     #
                  #                  All rights reserved                #
                  #                        -***-                        #
                  #######################################################


                         Program Version 3.0.3 - RELEASE   -


 With contributions from (in alphabetic order):
   Ute Becker             : Parallelization
   Dmytro Bykov           : SCF Hessian
   Dmitry Ganyushin       : Spin-Orbit,Spin-Spin,Magnetic field MRCI
   Andreas Hansen         : Spin unrestricted coupled pair/coupled cluster methods
   Dimitrios Liakos       : Extrapolation schemes; parallel MDCI
   Robert Izsak           : Overlap fitted RIJCOSX, COSX-SCS-MP3
   Christian Kollmar      : KDIIS, OOCD, Brueckner-CCSD(T), CCSD density
   Simone Kossmann        : Meta GGA functionals, TD-DFT gradient, OOMP2, MP2 Hessian
   Taras Petrenko         : DFT Hessian,TD-DFT gradient, ASA and ECA modules, normal mode analysis, Resonance Raman, ABS, FL, XAS/XES, NRVS
   Christoph Reimann      : Effective Core Potentials
   Michael Roemelt        : Restricted open shell CIS
   Christoph Riplinger    : Improved optimizer, TS searches, QM/MM, DLPNO-CCSD
   Barbara Sandhoefer     : DKH picture change effects
   Igor Schapiro          : Molecular dynamics
   Kantharuban Sivalingam : CASSCF convergence, NEVPT2
   Boris Wezisla          : Elementary symmetry handling
   Frank Wennmohs         : Technical directorship


 We gratefully acknowledge several colleagues who have allowed us to
 interface, adapt or use parts of their codes:
   Stefan Grimme, W. Hujo, H. Kruse, T. Risthaus : VdW corrections, initial TS optimization,
                                                   DFT functionals, gCP
   Ed Valeev                                     : LibInt (2-el integral package), F12 methods
   Garnet Chan, S. Sharma, R. Olivares           : DMRG
   Ulf Ekstrom                                   : XCFun DFT Library
   Mihaly Kallay                                 : mrcc  (arbitrary order and MRCC methods)
   Andreas Klamt, Michael Diedenhofen            : otool_cosmo (COSMO solvation model)
   Frank Weinhold                                : gennbo (NPA and NBO analysis)
   Christopher J. Cramer and Donald G. Truhlar   : smd solvation model


 Your calculation uses the libint2 library for the computation of 2-el integrals
 For citations please refer to: http://libint.valeyev.net

 This ORCA versions uses:
   CBLAS   interface :  Fast vector & matrix operations
   LAPACKE interface :  Fast linear algebra routines
   SCALAPACK package :  Parallel linear algebra routines


Your calculation utilizes the basis: Ahlrichs-TZV
Cite in your paper:
H - Kr: A. Schaefer, H. Horn and R. Ahlrichs, J. Chem. Phys. 97, 2571 (1992).

The def2-TZV basis will be loaded
Cite in your paper:
 	F. Weigend, R. Ahlrichs, Phys. Chem. Chem. Phys. 2005, 7, 3297.

Your calculation utilizes the atom-pairwise dispersion correction
with the Becke-Johnson damping scheme (D3BJ)
Cite in your paper:
S.Grimme, S.Ehrlich, L.Goerigk, J Comput Chem, (2011), 32, 1456–1465 
S.Grimme, J.Antony, S.Ehrlich and H.Krieg, J.Chem.Phys., 132, (2010), 154104 
   

================================================================================
                                        WARNINGS
                       Please study these warnings very carefully!
================================================================================

WARNING: The RI method has been chosen with no auxiliary basis (AUX or GTOAUX in BASIS block)
        Standard TZV/J expansion basis used (GTOAUX=TZV_J)

Now building the actual basis set
cite the ECPs for Pb [SD(60,MDF)] as follows:
  B. Metz, H. Stoll, M. Dolg, J. Chem. Phys. 113, 2563 (2000).

ECP parameters for Pb [SD(60,MDF)] have been obtained from:
  pseudopotential library of the Stuttgart/Cologne group
  http://www.theochem.uni-stuttgart.de/pseudopotentials/

cite the ECP basis sets for Pb [DEF2-TZVP] as follows:
  F. Weigend, R. Ahlrichs; Phys. Chem. Chem. Phys. 7, 3297(2005).

ECP basis sets for Pb [DEF2-TZVP] have been obtained from:
  Turbomole basis set library
  ftp://ftp.chemie.uni-karlsruhe.de/pub/basen/



INFO   : the flag for use of LIBINT has been found!

================================================================================
                                       INPUT FILE
================================================================================
NAME = PbMACl3_mp2_md_3.orca
|  1> ! RIJCOSX RI-B2PLYP D3BJ def2-TZVP ECP{def2-TZVP} TIGHTSCF Grid5 FinalGrid6 SlowConv MORead
|  2> %method
|  3>  RunTyp Gradient
|  4>  end
|  5> %maxcore 1000
|  6> %moinp "previous.gbw"
|  7> *xyz 0 1
|  8> C -0.310893 -0.745685 -1.457430 
|  9> N -0.971488 0.393186 -0.795423 
| 10> H -0.778742 0.380655 0.196202 
| 11> H -1.972690 0.326143 -0.944360 
| 12> H -0.640760 1.261720 -1.191650 
| 13> H -0.634781 -1.686880 -1.011230 
| 14> H 0.773540 -0.678849 -1.363890 
| 15> H -0.565213 -0.766879 -2.518220 
| 16> Pb -3.155990 -2.539120 -2.424290 
| 17> Cl -0.817626 -3.182780 -2.983350 
| 18> Cl -3.353030 -0.185046 -1.827420 
| 19> Cl -4.096520 -4.046140 -0.688540 
| 20> *
| 21> 
| 22>                          ****END OF INPUT****
================================================================================

                     *******************************
                     * Energy+Gradient Calculation *
                     *******************************

---------------------------------
CARTESIAN COORDINATES (ANGSTROEM)
---------------------------------
  C     -0.310893   -0.745685   -1.457430
  N     -0.971488    0.393186   -0.795423
  H     -0.778742    0.380655    0.196202
  H     -1.972690    0.326143   -0.944360
  H     -0.640760    1.261720   -1.191650
  H     -0.634781   -1.686880   -1.011230
  H      0.773540   -0.678849   -1.363890
  H     -0.565213   -0.766879   -2.518220
  Pb    -3.155990   -2.539120   -2.424290
  Cl    -0.817626   -3.182780   -2.983350
  Cl    -3.353030   -0.185046   -1.827420
  Cl    -4.096520   -4.046140   -0.688540

----------------------------
CARTESIAN COORDINATES (A.U.)
----------------------------
  NO LB      ZA    FRAG    MASS        X           Y           Z
   0 C     6.0000    0    12.011         -0.587502626953180         -1.409140432173069         -2.754143559360850
   1 N     7.0000    0    14.007         -1.835846262390889          0.743013859691961         -1.503131630622044
   2 H     1.0000    0     1.008         -1.471609108982104          0.719333701507794          0.370768046927617
   3 H     1.0000    0     1.008         -3.727843847125114          0.616320950495479         -1.784581771829873
   4 H     1.0000    0     1.008         -1.210860917571381          2.384305257691122         -2.251892147487260
   5 H     1.0000    0     1.008         -1.199562245016666         -3.187741220789081         -1.910947758405187
   6 H     1.0000    0     1.008          1.461778753633445         -1.282838696286308         -2.577378576793856
   7 H     1.0000    0     1.008         -1.068097777332032         -1.449191287855395         -4.758746144963174
   8 Pb   22.0000*   0   207.200  -5.963956781394131  -4.798241421162128  -4.581244169203951
   9 Cl   17.0000    0    35.453         -1.545089219973497         -6.014582544521882         -5.637714461633967
  10 Cl   17.0000    0    35.453         -6.336308418821974         -0.349686262177592         -3.453323331650374
  11 Cl   17.0000    0    35.453         -7.741300902131086         -7.646096499504134         -1.301152032250139
* core charge reduced due to ECP

--------------------------------
INTERNAL COORDINATES (ANGSTROEM)
--------------------------------
 C      0   0   0   0.000000     0.000     0.000
 N      1   0   0   1.473657     0.000     0.000
 H      2   1   0   1.010261   110.232     0.000
 H      2   1   3   1.014437   108.989   239.963
 H      2   1   3   1.010311   109.965   120.775
 H      1   2   3   1.090801   110.485    57.165
 H      1   2   3   1.090510   111.092   297.013
 H      1   2   3   1.091056   110.322   176.718
 Pb     6   1   2   3.013229   107.497    86.725
 Cl     8   1   2   2.473183   103.039   218.467
 Cl     4   2   1   1.716522   152.732   334.190
 Cl     9   6   1   2.483653    99.249   201.876

---------------------------
INTERNAL COORDINATES (A.U.)
---------------------------
 C      0   0   0   0.000000     0.000     0.000
 N      1   0   0   2.784809     0.000     0.000
 H      2   1   0   1.909117   110.232     0.000
 H      2   1   3   1.917008   108.989   239.963
 H      2   1   3   1.909211   109.965   120.775
 H      1   2   3   2.061314   110.485    57.165
 H      1   2   3   2.060765   111.092   297.013
 H      1   2   3   2.061797   110.322   176.718
 Pb     6   1   2   5.694177   107.497    86.725
 Cl     8   1   2   4.673639   103.039   218.467
 Cl     4   2   1   3.243756   152.732   334.190
 Cl     9   6   1   4.693425    99.249   201.876

---------------------
BASIS SET INFORMATION
---------------------
There are 5 groups of distinct atoms

 Group   1 Type C   : 11s6p2d1f contracted to 5s3p2d1f pattern {62111/411/11/1}
 Group   2 Type N   : 11s6p2d1f contracted to 5s3p2d1f pattern {62111/411/11/1}
 Group   3 Type H   : 5s1p contracted to 3s1p pattern {311/1}
 Group   4 Type Pb  : 10s9p8d2f contracted to 6s5p3d2f pattern {421111/33111/611/11}
 Group   5 Type Cl  : 14s9p3d1f contracted to 5s5p2d1f pattern {73211/51111/21/1}

Atom   0C    basis set group =>   1
Atom   1N    basis set group =>   2
Atom   2H    basis set group =>   3
Atom   3H    basis set group =>   3
Atom   4H    basis set group =>   3
Atom   5H    basis set group =>   3
Atom   6H    basis set group =>   3
Atom   7H    basis set group =>   3
Atom   8Pb   basis set group =>   4
Atom   9Cl   basis set group =>   5
Atom  10Cl   basis set group =>   5
Atom  11Cl   basis set group =>   5
-------------------------------
AUXILIARY BASIS SET INFORMATION
-------------------------------
There are 5 groups of distinct atoms

 Group   1 Type C   : 12s5p4d2f1g contracted to 6s4p3d1f1g pattern {711111/2111/211/2/1}
 Group   2 Type N   : 12s5p4d2f1g contracted to 6s4p3d1f1g pattern {711111/2111/211/2/1}
 Group   3 Type H   : 5s2p1d contracted to 3s1p1d pattern {311/2/1}
 Group   4 Type Pb  : 31s12p8d6f3g contracted to 31s12p8d6f3g pattern {1111111111111111111111111111111/111111111111/11111111/111111/111}
 Group   5 Type Cl  : 14s5p5d2f1g contracted to 8s4p3d1f1g pattern {71111111/2111/311/2/1}

Atom   0C    basis set group =>   1
Atom   1N    basis set group =>   2
Atom   2H    basis set group =>   3
Atom   3H    basis set group =>   3
Atom   4H    basis set group =>   3
Atom   5H    basis set group =>   3
Atom   6H    basis set group =>   3
Atom   7H    basis set group =>   3
Atom   8Pb   basis set group =>   4
Atom   9Cl   basis set group =>   5
Atom  10Cl   basis set group =>   5
Atom  11Cl   basis set group =>   5

-------------------------
ECP PARAMETER INFORMATION
-------------------------

 Group 1, Type Pb ECP SD(60,MDF) (replacing 60 core electrons, lmax=5)

Atom   8Pb   ECP group =>   1


------------------------------------------------------------------------------
                           ORCA GTO INTEGRAL CALCULATION
                           -- RI-GTO INTEGRALS CHOSEN --
------------------------------------------------------------------------------

                         BASIS SET STATISTICS AND STARTUP INFO

Gaussian basis set:
 # of primitive gaussian shells          ...  186
 # of primitive gaussian functions       ...  420
 # of contracted shells                  ...  101
 # of contracted basis functions         ...  259
 Highest angular momentum                ...    3
 Maximum contraction depth               ...    7
Auxiliary gaussian basis set:
 # of primitive gaussian shells          ...  237
 # of primitive gaussian functions       ...  643
 # of contracted shells                  ...  171
 # of contracted aux-basis functions     ...  493
 Highest angular momentum                ...    4
 Maximum contraction depth               ...    7
Ratio of auxiliary to basis functions    ...  1.90
Integral package used                  ... LIBINT
 One Electron integrals                  
   ECP integrals                         ... done
 Ordering auxiliary basis shells         ... done
 Integral threshhold             Thresh  ...  2.500e-11
 Primitive cut-off               TCut    ...  2.500e-12
 Pre-screening matrix                    ... done
 Shell pair data                         ... 
 Ordering of the shell pairs             ... done (   0.001 sec) 4394 of 5151 pairs
 Determination of significant pairs      ... done (   0.000 sec)
 Creation of shell pair data             ... done (   0.002 sec)
 Storage of shell pair data              ... done (   0.001 sec)
 Shell pair data done in (   0.003 sec)
 Computing two index integrals           ... done
 Cholesky decomposition of the V-matrix  ... done


Timings:
 Total evaluation time                   ...   0.622 sec (  0.010 min)
 One electron matrix time                ...   0.332 sec (  0.006 min) = 53.4%
 Schwartz matrix evaluation time         ...   0.220 sec (  0.004 min) = 35.3%
 Two index repulsion integral time       ...   0.009 sec (  0.000 min) =  1.4%
 Cholesky decomposition of V             ...   0.031 sec (  0.001 min) =  5.0%
 Three index repulsion integral time     ...   0.000 sec (  0.000 min) =  0.0%

-------------------------------------------------------------------------------
                                 ORCA SCF
-------------------------------------------------------------------------------

------------
SCF SETTINGS
------------
Hamiltonian:
 Density Functional     Method          .... DFT(GTOs)
 Exchange Functional    Exchange        .... B88
   X-Alpha parameter    XAlpha          ....  0.666667
   Becke's b parameter  XBeta           ....  0.004200
 Correlation Functional Correlation     .... LYP
 LDA part of GGA corr.  LDAOpt          .... VWN-3
 Gradients option       PostSCFGGA      .... off
 Hybrid DFT is turned on
   Fraction HF Exchange ScalHFX         ....  0.530000
   Scaling of DF-GGA-X  ScalDFX         ....  0.470000
   Scaling of DF-GGA-C  ScalDFC         ....  0.730000
   Scaling of DF-LDA-C  ScalLDAC        ....  0.730000
   Perturbative correction              ....  0.270000
 RI-approximation to the Coulomb term is turned on
   Number of auxiliary basis functions  .... 493
   RIJ-COSX (HFX calculated with COS-X)).... on


General Settings:
 Integral files         IntName         .... PbMACl3_mp2_md_3.orca
 Hartree-Fock type      HFTyp           .... RHF
 Total Charge           Charge          ....    0
 Multiplicity           Mult            ....    1
 Number of Electrons    NEL             ....   92
 Basis Dimension        Dim             ....  259
 Nuclear Repulsion      ENuc            ....    601.4363138068 Eh

Convergence Acceleration:
 DIIS                   CNVDIIS         .... on
   Start iteration      DIISMaxIt       ....     0
   Startup error        DIISStart       ....  0.200000
   # of expansion vecs  DIISMaxEq       ....     5
   Bias factor          DIISBfac        ....   1.050
   Max. coefficient     DIISMaxC        ....  10.000
 Newton-Raphson         CNVNR           .... off
 SOSCF                  CNVSOSCF        .... on
   Start iteration      SOSCFMaxIt      ....   150
   Startup grad/error   SOSCFStart      ....  0.001000
 Level Shifting         CNVShift        .... on
   Level shift para.    LevelShift      ....    0.2500
   Turn off err/grad.   ShiftErr        ....    0.0000
 Zerner damping         CNVZerner       .... off
 Static damping         CNVDamp         .... on
   Fraction old density DampFac         ....    0.8500
   Max. Damping (<1)    DampMax         ....    0.9800
   Min. Damping (>=0)   DampMin         ....    0.0000
   Turn off err/grad.   DampErr         ....    0.0300
 Fernandez-Rico         CNVRico         .... off

SCF Procedure:
 Maximum # iterations   MaxIter         ....   125
 SCF integral mode      SCFMode         .... Direct
   Integral package                     .... LIBINT
 Reset frequeny         DirectResetFreq ....    20
 Integral Threshold     Thresh          ....  2.500e-11 Eh
 Primitive CutOff       TCut            ....  2.500e-12 Eh

Convergence Tolerance:
 Convergence Check Mode ConvCheckMode   .... Total+1el-Energy
 Energy Change          TolE            ....  1.000e-08 Eh
 1-El. energy change                    ....  1.000e-05 Eh
 Orbital Gradient       TolG            ....  1.000e-05
 Orbital Rotation angle TolX            ....  1.000e-05
 DIIS Error             TolErr          ....  5.000e-07


Diagonalization of the overlap matrix:
Smallest eigenvalue                        ... 6.934e-04
Time for diagonalization                   ...    0.148 sec
Threshold for overlap eigenvalues          ... 1.000e-08
Number of eigenvalues below threshold      ... 0
Time for construction of square roots      ...    0.005 sec
Total time needed                          ...    0.154 sec

---------------------
INITIAL GUESS: MOREAD
---------------------
Guess MOs are being read from file: previous.gbw
Input geometry compatible with but different from current geometry
Input basis set matches current basis set (good)
MOs were renormalized
MOs were reorthogonalized (Schmidt)
                      ------------------
                      INITIAL GUESS DONE (   0.1 sec)
                      ------------------
-------------------
DFT GRID GENERATION
-------------------

General Integration Accuracy     IntAcc      ...  5.010
Radial Grid Type                 RadialGrid  ... Gauss-Chebyshev
Angular Grid (max. acc.)         AngularGrid ... Lebedev-434
Angular grid pruning method      GridPruning ... 3 (G Style)
Weight generation scheme         WeightScheme... Becke
Basis function cutoff            BFCut       ...    1.0000e-11
Integration weight cutoff        WCut        ...    1.0000e-14
Grids for H and He will be reduced by one unit

# of grid points (after initial pruning)     ... 115882 (   0.0 sec)
# of grid points (after weights+screening)   ... 108456 (   0.2 sec)
nearest neighbour list constructed           ...    0.0 sec
Grid point re-assignment to atoms done       ...    0.0 sec
Grid point division into batches done        ...    0.9 sec
Reduced shell lists constructed in    3.3 sec

Total number of grid points                  ...   108456
Total number of batches                      ...     1700
Average number of points per batch           ...       63
Average number of grid points per atom       ...     9038
Average number of shells per batch           ...    54.83 (54.29%)
Average number of basis functions per batch  ...   144.94 (55.96%)
Average number of large shells per batch     ...    41.56 (75.78%)
Average number of large basis fcns per batch ...   107.53 (74.19%)
Maximum spatial batch extension              ...  31.95, 33.44, 32.93 au
Average spatial batch extension              ...   2.38,  2.38,  2.45 au

Time for grid setup =    3.546 sec

--------------------
COSX GRID GENERATION
--------------------

General Integration Accuracy     IntAcc      ...  3.340
Radial Grid Type                 RadialGrid  ... Gauss-Chebyshev
Angular Grid (max. acc.)         AngularGrid ... Lebedev-50
Angular grid pruning method      GridPruning ... 3 (G Style)
Weight generation scheme         WeightScheme... Becke
Basis function cutoff            BFCut       ...    1.0000e-11
Integration weight cutoff        WCut        ...    1.0000e-14
Grids for H and He will be reduced by one unit

# of grid points (after initial pruning)     ...   6578 (   0.0 sec)
# of grid points (after weights+screening)   ...   6245 (   0.0 sec)
nearest neighbour list constructed           ...    0.0 sec
Grid point re-assignment to atoms done       ...    0.0 sec
Grid point division into batches done        ...    0.0 sec
Reduced shell lists constructed in    0.2 sec

Total number of grid points                  ...     6245
Total number of batches                      ...      103
Average number of points per batch           ...       60
Average number of grid points per atom       ...      520
Average number of shells per batch           ...    66.12 (65.47%)
Average number of basis functions per batch  ...   177.43 (68.51%)
Average number of large shells per batch     ...    51.62 (78.06%)
Average number of large basis fcns per batch ...   135.67 (76.46%)
Maximum spatial batch extension              ...  25.64, 26.82, 36.53 au
Average spatial batch extension              ...   6.12,  6.10,  6.74 au

Overlap Fitting                  UseSFitting ... on
Constructing numerical overlap ... done (      0.1 sec)
Inverting numerical overlap    ... done (      0.0 sec)
Obtaining analytic overlap     ... done (      0.0 sec)
Final contraction and storage  ... done (      0.0 sec)


General Integration Accuracy     IntAcc      ...  3.670
Radial Grid Type                 RadialGrid  ... Gauss-Chebyshev
Angular Grid (max. acc.)         AngularGrid ... Lebedev-50
Angular grid pruning method      GridPruning ... 3 (G Style)
Weight generation scheme         WeightScheme... Becke
Basis function cutoff            BFCut       ...    1.0000e-11
Integration weight cutoff        WCut        ...    1.0000e-14
Grids for H and He will be reduced by one unit

# of grid points (after initial pruning)     ...   8124 (   0.0 sec)
# of grid points (after weights+screening)   ...   7688 (   0.0 sec)
nearest neighbour list constructed           ...    0.0 sec
Grid point re-assignment to atoms done       ...    0.0 sec
Grid point division into batches done        ...    0.0 sec
Reduced shell lists constructed in    0.2 sec

Total number of grid points                  ...     7688
Total number of batches                      ...      126
Average number of points per batch           ...       61
Average number of grid points per atom       ...      641
Average number of shells per batch           ...    65.51 (64.86%)
Average number of basis functions per batch  ...   175.56 (67.78%)
Average number of large shells per batch     ...    51.39 (78.44%)
Average number of large basis fcns per batch ...   134.93 (76.86%)
Maximum spatial batch extension              ...  26.58, 27.87, 37.91 au
Average spatial batch extension              ...   5.74,  5.81,  5.93 au

Overlap Fitting                  UseSFitting ... on
Constructing numerical overlap ... done (      0.1 sec)
Inverting numerical overlap    ... done (      0.0 sec)
Obtaining analytic overlap     ... done (      0.0 sec)
Final contraction and storage  ... done (      0.0 sec)


General Integration Accuracy     IntAcc      ...  4.010
Radial Grid Type                 RadialGrid  ... Gauss-Chebyshev
Angular Grid (max. acc.)         AngularGrid ... Lebedev-110
Angular grid pruning method      GridPruning ... 3 (G Style)
Weight generation scheme         WeightScheme... Becke
Basis function cutoff            BFCut       ...    1.0000e-11
Integration weight cutoff        WCut        ...    1.0000e-14
Grids for H and He will be reduced by one unit

# of grid points (after initial pruning)     ...  15170 (   0.0 sec)
# of grid points (after weights+screening)   ...  14401 (   0.0 sec)
nearest neighbour list constructed           ...    0.0 sec
Grid point re-assignment to atoms done       ...    0.0 sec
Grid point division into batches done        ...    0.0 sec
Reduced shell lists constructed in    0.4 sec

Total number of grid points                  ...    14401
Total number of batches                      ...      231
Average number of points per batch           ...       62
Average number of grid points per atom       ...     1200
Average number of shells per batch           ...    62.40 (61.78%)
Average number of basis functions per batch  ...   166.81 (64.40%)
Average number of large shells per batch     ...    48.25 (77.32%)
Average number of large basis fcns per batch ...   126.77 (76.00%)
Maximum spatial batch extension              ...  29.48, 28.61, 39.26 au
Average spatial batch extension              ...   4.79,  4.76,  5.13 au

Overlap Fitting                  UseSFitting ... on
Constructing numerical overlap ... done (      0.2 sec)
Inverting numerical overlap    ... done (      0.0 sec)
Obtaining analytic overlap     ... done (      0.0 sec)
Final contraction and storage  ... done (      0.0 sec)

Time for X-Grid setup             =    1.367 sec
--------------
SCF ITERATIONS
--------------
ITER       Energy         Delta-E        Max-DP      RMS-DP      [F,P]     Damp
               ***  Starting incremental Fock matrix formation  ***
  0  -1663.0724322318   0.000000000000 0.13987563  0.00247743  0.5552839 0.8500
  1  -1663.9308037285  -0.858371496722 0.12244873  0.00216782  0.4709366 0.8500
                               ***Turning on DIIS***
  2  -1664.6359027135  -0.705098984923 0.09903226  0.00184247  0.4005019 0.8500
  3  -1665.2307358130  -0.594833099594 0.07812729  0.00156314  0.3405735 0.8500
  4  -1665.7453694131  -0.514633600047 0.06334110  0.00134381  0.2895708 0.8500
  5  -1666.1899847501  -0.444615337032 0.05271509  0.00116412  0.2461772 0.8500
  6  -1666.5760773606  -0.386092610501 0.04485887  0.00100629  0.2092704 0.8500
  7  -1666.9124364747  -0.336359114059 0.03866817  0.00086552  0.1778901 0.8500
  8  -1667.2050975242  -0.292661049499 0.03344346  0.00074078  0.1512138 0.8500
  9  -1667.4582980002  -0.253200476020 0.02866252  0.00063204  0.1285375 0.8500
 10  -1667.6764425366  -0.218144536370 0.02434658  0.00053875  0.1092615 0.8500
 11  -1667.8640136911  -0.187571154505 0.02063826  0.00045921  0.0928761 0.8500
 12  -1668.0250872273  -0.161073536244 0.01752604  0.00039140  0.0789479 0.8500
 13  -1668.1632264522  -0.138139224915 0.01491267  0.00033348  0.0671081 0.8500
 14  -1668.2815318721  -0.118305419852 0.01269095  0.00028398  0.0570438 0.8500
 15  -1668.3827247003  -0.101192828233 0.01078957  0.00024176  0.0484887 0.8500
 16  -1668.4691949964  -0.086470296044 0.00916719  0.00020581  0.0412166 0.8500
 17  -1668.5430271943  -0.073832197945 0.00778962  0.00017522  0.0350351 0.8500
 18  -1668.6060271559  -0.062999961619 0.04414587  0.00099448  0.0297807 0.0000
                      *** Initiating the SOSCF procedure ***
                           *** Shutting down DIIS ***
                      *** Re-Reading the Fockian *** 
                      *** Removing any level shift *** 
ITER      Energy       Delta-E        Grad      Rot      Max-DP    RMS-DP
 19  -1668.96729525  -0.3612680951  0.000317  0.000317  0.000497  0.000011
               *** Restarting incremental Fock matrix formation ***
 20  -1668.96741998  -0.0001247247  0.000115  0.000365  0.000332  0.000011
 21  -1668.96742077  -0.0000007909  0.000122  0.000088  0.000177  0.000004
 22  -1668.96742112  -0.0000003549  0.000010  0.000020  0.000042  0.000001
 23  -1668.96742112   0.0000000013  0.000004  0.000006  0.000011  0.000000
                  ***Gradient check signals convergence***
              ***Rediagonalizing the Fockian in SOSCF/NRSCF***

               *****************************************************
               *                     SUCCESS                       *
               *           SCF CONVERGED AFTER  24 CYCLES          *
               *****************************************************

Old exchange energy                            =    -59.267562313 Eh
New exchange energy                            =    -59.270562988 Eh
Exchange energy change after final integration =     -0.003000674 Eh
Total energy after final integration           =  -1668.970421786 Eh
Final COS-X integration done in                =    20.050 sec

----------------
TOTAL SCF ENERGY
----------------

Total Energy       :        -1668.97042179 Eh          -45414.99403 eV

Components:
Nuclear Repulsion  :          601.43631381 Eh           16365.91413 eV
Electronic Energy  :        -2270.40673559 Eh          -61780.90816 eV

One Electron Energy:        -3574.06889345 Eh          -97255.35896 eV
Two Electron Energy:         1303.66215786 Eh           35474.45080 eV

Virial components:
Potential Energy   :        -3207.29461228 Eh          -87274.92337 eV
Kinetic Energy     :         1538.32419050 Eh           41859.92934 eV
Virial Ratio       :            2.08492763


DFT components:
N(Alpha)           :       46.000015657718 electrons
N(Beta)            :       46.000015657718 electrons
N(Total)           :       92.000031315435 electrons
E(X)               :      -52.631718970791 Eh       
E(C)               :       -2.615221731168 Eh       
E(XC)              :      -55.246940701959 Eh       

---------------
SCF CONVERGENCE
---------------

  Last Energy change         ...    8.9108e-09  Tolerance :   1.0000e-08
  Last MAX-Density change    ...    3.9509e-13  Tolerance :   1.0000e-07
  Last RMS-Density change    ...    1.8730e-15  Tolerance :   5.0000e-09
  Last Orbital Gradient      ...    1.3834e-06  Tolerance :   1.0000e-05
  Last Orbital Rotation      ...    3.8073e-06  Tolerance :   1.0000e-05

             **** THE GBW FILE WAS UPDATED (PbMACl3_mp2_md_3.orca.gbw) ****
             **** DENSITY FILE WAS UPDATED (PbMACl3_mp2_md_3.orca.scfp.tmp) ****
             **** ENERGY FILE WAS UPDATED (PbMACl3_mp2_md_3.orca.en.tmp) ****
----------------
ORBITAL ENERGIES
----------------

  NO   OCC          E(Eh)            E(eV) 
   0   2.0000    -102.874207     -2799.3495 
   1   2.0000    -102.831254     -2798.1807 
   2   2.0000    -102.822393     -2797.9395 
   3   2.0000     -14.989073      -407.8734 
   4   2.0000     -10.703458      -291.2559 
   5   2.0000      -9.885930      -269.0098 
   6   2.0000      -9.840040      -267.7611 
   7   2.0000      -9.829743      -267.4809 
   8   2.0000      -7.522350      -204.6935 
   9   2.0000      -7.521289      -204.6647 
  10   2.0000      -7.520602      -204.6460 
  11   2.0000      -7.477002      -203.4596 
  12   2.0000      -7.475215      -203.4109 
  13   2.0000      -7.475043      -203.4063 
  14   2.0000      -7.466905      -203.1848 
  15   2.0000      -7.464907      -203.1304 
  16   2.0000      -7.464786      -203.1271 
  17   2.0000      -5.773507      -157.1051 
  18   2.0000      -3.546109       -96.4945 
  19   2.0000      -3.543991       -96.4369 
  20   2.0000      -3.542754       -96.4032 
  21   2.0000      -1.186161       -32.2771 
  22   2.0000      -0.965271       -26.2664 
  23   2.0000      -0.947314       -25.7777 
  24   2.0000      -0.942021       -25.6337 
  25   2.0000      -0.935169       -25.4472 
  26   2.0000      -0.933644       -25.4057 
  27   2.0000      -0.904526       -24.6134 
  28   2.0000      -0.875643       -23.8275 
  29   2.0000      -0.848312       -23.0837 
  30   2.0000      -0.834604       -22.7107 
  31   2.0000      -0.720848       -19.6153 
  32   2.0000      -0.716681       -19.5019 
  33   2.0000      -0.612866       -16.6769 
  34   2.0000      -0.556793       -15.1511 
  35   2.0000      -0.523474       -14.2444 
  36   2.0000      -0.520033       -14.1508 
  37   2.0000      -0.403616       -10.9830 
  38   2.0000      -0.391417       -10.6510 
  39   2.0000      -0.388581       -10.5738 
  40   2.0000      -0.358181        -9.7466 
  41   2.0000      -0.337223        -9.1763 
  42   2.0000      -0.331084        -9.0092 
  43   2.0000      -0.319911        -8.7052 
  44   2.0000      -0.316241        -8.6054 
  45   2.0000      -0.249836        -6.7984 
  46   0.0000      -0.010019        -0.2726 
  47   0.0000       0.003214         0.0875 
  48   0.0000       0.051582         1.4036 
  49   0.0000       0.059454         1.6178 
  50   0.0000       0.063295         1.7224 
  51   0.0000       0.088979         2.4212 
  52   0.0000       0.108736         2.9589 
  53   0.0000       0.126588         3.4446 
  54   0.0000       0.141198         3.8422 
  55   0.0000       0.154542         4.2053 
  56   0.0000       0.158109         4.3024 
  57   0.0000       0.175257         4.7690 
  58   0.0000       0.178910         4.8684 
  59   0.0000       0.222703         6.0600 
  60   0.0000       0.233024         6.3409 
  61   0.0000       0.237881         6.4731 
  62   0.0000       0.258335         7.0296 
  63   0.0000       0.277019         7.5381 
  64   0.0000       0.279950         7.6178 
  65   0.0000       0.295530         8.0418 
  66   0.0000       0.305018         8.2999 
  67   0.0000       0.320940         8.7332 
  68   0.0000       0.341366         9.2890 
  69   0.0000       0.371291        10.1033 
  70   0.0000       0.388969        10.5844 
  71   0.0000       0.417259        11.3542 
  72   0.0000       0.423227        11.5166 
  73   0.0000       0.435707        11.8562 
  74   0.0000       0.445397        12.1199 
  75   0.0000       0.448127        12.1941 
  76   0.0000       0.453254        12.3337 
  77   0.0000       0.468196        12.7402 
  78   0.0000       0.472670        12.8620 
  79   0.0000       0.477204        12.9854 
  80   0.0000       0.484165        13.1748 
  81   0.0000       0.488177        13.2840 
  82   0.0000       0.503272        13.6947 
  83   0.0000       0.512335        13.9414 
  84   0.0000       0.529394        14.4055 
  85   0.0000       0.539374        14.6771 
  86   0.0000       0.544267        14.8103 
  87   0.0000       0.553560        15.0631 
  88   0.0000       0.560340        15.2476 
  89   0.0000       0.579273        15.7628 
  90   0.0000       0.582972        15.8635 
  91   0.0000       0.595132        16.1944 
  92   0.0000       0.601278        16.3616 
  93   0.0000       0.610739        16.6191 
  94   0.0000       0.621119        16.9015 
  95   0.0000       0.627931        17.0869 
  96   0.0000       0.653208        17.7747 
  97   0.0000       0.659548        17.9472 
  98   0.0000       0.679706        18.4957 
  99   0.0000       0.709170        19.2975 
 100   0.0000       0.732477        19.9317 
 101   0.0000       0.748562        20.3694 
 102   0.0000       0.760229        20.6869 
 103   0.0000       0.800410        21.7803 
 104   0.0000       0.820021        22.3139 
 105   0.0000       0.865222        23.5439 
 106   0.0000       0.870656        23.6917 
 107   0.0000       0.889179        24.1958 
 108   0.0000       0.904517        24.6132 
 109   0.0000       0.910524        24.7766 
 110   0.0000       0.930315        25.3152 
 111   0.0000       0.944964        25.7138 
 112   0.0000       0.954868        25.9833 
 113   0.0000       0.969910        26.3926 
 114   0.0000       0.974867        26.5275 
 115   0.0000       1.005061        27.3491 
 116   0.0000       1.041233        28.3334 
 117   0.0000       1.093791        29.7636 
 118   0.0000       1.098750        29.8985 
 119   0.0000       1.107090        30.1255 
 120   0.0000       1.119389        30.4601 
 121   0.0000       1.129164        30.7261 
 122   0.0000       1.187215        32.3058 
 123   0.0000       1.208129        32.8749 
 124   0.0000       1.241795        33.7910 
 125   0.0000       1.257329        34.2137 
 126   0.0000       1.292423        35.1686 
 127   0.0000       1.344303        36.5803 
 128   0.0000       1.359653        36.9980 
 129   0.0000       1.388142        37.7733 
 130   0.0000       1.437645        39.1203 
 131   0.0000       1.543215        41.9930 
 132   0.0000       1.549221        42.1565 
 133   0.0000       1.576098        42.8878 
 134   0.0000       1.610424        43.8219 
 135   0.0000       1.640278        44.6342 
 136   0.0000       1.755187        47.7611 
 137   0.0000       1.768713        48.1291 
 138   0.0000       1.777923        48.3797 
 139   0.0000       1.873016        50.9674 
 140   0.0000       1.881460        51.1971 
 141   0.0000       1.883537        51.2537 
 142   0.0000       1.932617        52.5892 
 143   0.0000       1.946056        52.9549 
 144   0.0000       1.954986        53.1979 
 145   0.0000       1.967608        53.5413 
 146   0.0000       1.972633        53.6781 
 147   0.0000       1.985463        54.0272 
 148   0.0000       1.993377        54.2425 
 149   0.0000       2.000137        54.4265 
 150   0.0000       2.010358        54.7046 
 151   0.0000       2.021136        54.9979 
 152   0.0000       2.026437        55.1421 
 153   0.0000       2.057361        55.9836 
 154   0.0000       2.075052        56.4650 
 155   0.0000       2.094361        56.9905 
 156   0.0000       2.097904        57.0869 
 157   0.0000       2.118718        57.6532 
 158   0.0000       2.132981        58.0414 
 159   0.0000       2.133498        58.0554 
 160   0.0000       2.143795        58.3356 
 161   0.0000       2.149553        58.4923 
 162   0.0000       2.157270        58.7023 
 163   0.0000       2.169761        59.0422 
 164   0.0000       2.177802        59.2610 
 165   0.0000       2.186995        59.5112 
 166   0.0000       2.204287        59.9817 
 167   0.0000       2.227107        60.6027 
 168   0.0000       2.241653        60.9985 
 169   0.0000       2.250980        61.2523 
 170   0.0000       2.257824        61.4385 
 171   0.0000       2.263657        61.5972 
 172   0.0000       2.272254        61.8312 
 173   0.0000       2.283374        62.1338 
 174   0.0000       2.285796        62.1997 
 175   0.0000       2.286542        62.2200 
 176   0.0000       2.295692        62.4690 
 177   0.0000       2.313925        62.9651 
 178   0.0000       2.320635        63.1477 
 179   0.0000       2.365795        64.3765 
 180   0.0000       2.375851        64.6502 
 181   0.0000       2.390621        65.0521 
 182   0.0000       2.393599        65.1331 
 183   0.0000       2.411289        65.6145 
 184   0.0000       2.416137        65.7464 
 185   0.0000       2.424748        65.9808 
 186   0.0000       2.439693        66.3874 
 187   0.0000       2.440952        66.4217 
 188   0.0000       2.446455        66.5714 
 189   0.0000       2.449079        66.6428 
 190   0.0000       2.469279        67.1925 
 191   0.0000       2.491322        67.7923 
 192   0.0000       2.496242        67.9262 
 193   0.0000       2.514849        68.4325 
 194   0.0000       2.542128        69.1748 
 195   0.0000       2.544877        69.2496 
 196   0.0000       2.581418        70.2440 
 197   0.0000       2.596023        70.6414 
 198   0.0000       2.609341        71.0038 
 199   0.0000       2.616756        71.2055 
 200   0.0000       2.657233        72.3070 
 201   0.0000       2.703491        73.5657 
 202   0.0000       2.719937        74.0133 
 203   0.0000       2.735629        74.4403 
 204   0.0000       2.754804        74.9620 
 205   0.0000       2.820547        76.7510 
 206   0.0000       2.836015        77.1719 
 207   0.0000       2.845274        77.4238 
 208   0.0000       2.884428        78.4893 
 209   0.0000       2.923548        79.5538 
 210   0.0000       2.987045        81.2816 
 211   0.0000       3.041890        82.7740 
 212   0.0000       3.080960        83.8372 
 213   0.0000       3.159468        85.9735 
 214   0.0000       3.207149        87.2710 
 215   0.0000       3.242724        88.2390 
 216   0.0000       3.384339        92.0925 
 217   0.0000       3.427096        93.2560 
 218   0.0000       3.538725        96.2936 
 219   0.0000       3.594276        97.8052 
 220   0.0000       3.604347        98.0793 
 221   0.0000       3.700228       100.6883 
 222   0.0000       3.870035       105.3090 
 223   0.0000       3.887980       105.7973 
 224   0.0000       3.961399       107.7952 
 225   0.0000       4.195144       114.1557 
 226   0.0000       4.253980       115.7567 
 227   0.0000       4.440828       120.8411 
 228   0.0000       4.501436       122.4903 
 229   0.0000       4.836174       131.5990 
 230   0.0000       4.874549       132.6432 
 231   0.0000       4.934935       134.2864 
 232   0.0000       4.952806       134.7727 
 233   0.0000       5.071647       138.0065 
 234   0.0000       5.144157       139.9796 
 235   0.0000       5.161609       140.4545 
 236   0.0000       5.301442       144.2596 
 237   0.0000       5.495345       149.5359 
 238   0.0000       5.546094       150.9169 
 239   0.0000       5.926277       161.2622 
 240   0.0000      11.045381       300.5601 
 241   0.0000      11.077615       301.4372 
 242   0.0000      11.091486       301.8147 
 243   0.0000      11.097892       301.9890 
 244   0.0000      11.137823       303.0756 
 245   0.0000      11.180478       304.2363 
 246   0.0000      11.221805       305.3608 
 247   0.0000      11.238827       305.8240 
 248   0.0000      11.273516       306.7680 
 249   0.0000      22.735775       618.6719 
 250   0.0000      25.247609       687.0224 
 251   0.0000      25.313290       688.8096 
 252   0.0000      25.446531       692.4353 
 253   0.0000      32.342491       880.0839 
 254   0.0000      35.619878       969.2662 
 255   0.0000      35.810408       974.4507 
 256   0.0000      35.869851       976.0683 
 257   0.0000      35.962155       978.5800 
 258   0.0000     123.662481      3365.0272 

                    ********************************
                    * MULLIKEN POPULATION ANALYSIS *
                    ********************************

-----------------------
MULLIKEN ATOMIC CHARGES
-----------------------
   0 C :   -0.352280
   1 N :   -0.267494
   2 H :    0.280472
   3 H :    0.294732
   4 H :    0.281703
   5 H :    0.191340
   6 H :    0.161579
   7 H :    0.198267
   8 Pb:    0.831138
   9 Cl:   -0.556998
  10 Cl:   -0.529096
  11 Cl:   -0.533363
Sum of atomic charges:   -0.0000000

--------------------------------
MULLIKEN REDUCED ORBITAL CHARGES
--------------------------------
  0 C s       :     3.297403  s :     3.297403
      pz      :     1.046171  p :     2.974290
      px      :     1.067366
      py      :     0.860753
      dz2     :     0.018002  d :     0.074269
      dxz     :     0.006784
      dyz     :     0.016993
      dx2y2   :     0.020734
      dxy     :     0.011755
      f0      :     0.001080  f :     0.006319
      f+1     :     0.000537
      f-1     :     0.000780
      f+2     :     0.000803
      f-2     :     0.000898
      f+3     :     0.001314
      f-3     :     0.000907
  1 N s       :     3.401899  s :     3.401899
      pz      :     1.230435  p :     3.815201
      px      :     1.355890
      py      :     1.228876
      dz2     :     0.014241  d :     0.047976
      dxz     :     0.003898
      dyz     :     0.006835
      dx2y2   :     0.016174
      dxy     :     0.006828
      f0      :     0.000639  f :     0.002418
      f+1     :     0.000260
      f-1     :     0.000234
      f+2     :     0.000245
      f-2     :     0.000160
      f+3     :     0.000615
      f-3     :     0.000264
  2 H s       :     0.685165  s :     0.685165
      pz      :     0.020823  p :     0.034363
      px      :     0.007465
      py      :     0.006075
  3 H s       :     0.646267  s :     0.646267
      pz      :     0.011054  p :     0.059001
      px      :     0.039588
      py      :     0.008359
  4 H s       :     0.683763  s :     0.683763
      pz      :     0.008308  p :     0.034533
      px      :     0.008483
      py      :     0.017743
  5 H s       :     0.784776  s :     0.784776
      pz      :     0.005080  p :     0.023884
      px      :     0.004449
      py      :     0.014355
  6 H s       :     0.816440  s :     0.816440
      pz      :     0.004112  p :     0.021981
      px      :     0.014512
      py      :     0.003357
  7 H s       :     0.777845  s :     0.777845
      pz      :     0.015431  p :     0.023887
      px      :     0.004314
      py      :     0.004142
  8 Pbs       :     3.928736  s :     3.928736
      pz      :     2.389819  p :     7.014812
      px      :     2.338750
      py      :     2.286243
      dz2     :     2.032048  d :    10.151011
      dxz     :     2.032399
      dyz     :     2.023641
      dx2y2   :     2.035788
      dxy     :     2.027135
      f0      :     0.007349  f :     0.074303
      f+1     :     0.006486
      f-1     :     0.010622
      f+2     :     0.013430
      f-2     :     0.008090
      f+3     :     0.013435
      f-3     :     0.014892
  9 Cls       :     5.951564  s :     5.951564
      pz      :     3.898339  p :    11.583756
      px      :     3.769484
      py      :     3.915934
      dz2     :     0.003318  d :     0.020674
      dxz     :     0.003944
      dyz     :     0.001634
      dx2y2   :     0.007402
      dxy     :     0.004375
      f0      :     0.000092  f :     0.001003
      f+1     :     0.000160
      f-1     :     0.000060
      f+2     :     0.000160
      f-2     :     0.000080
      f+3     :     0.000206
      f-3     :     0.000244
 10 Cls       :     5.949057  s :     5.949057
      pz      :     3.892863  p :    11.546987
      px      :     3.893587
      py      :     3.760536
      dz2     :     0.002722  d :     0.031227
      dxz     :     0.005440
      dyz     :     0.006271
      dx2y2   :     0.011197
      dxy     :     0.005598
      f0      :     0.000275  f :     0.001825
      f+1     :     0.000071
      f-1     :     0.000206
      f+2     :     0.000429
      f-2     :     0.000203
      f+3     :     0.000223
      f-3     :     0.000418
 11 Cls       :     5.949887  s :     5.949887
      pz      :     3.859560  p :    11.563643
      px      :     3.872597
      py      :     3.831486
      dz2     :     0.003170  d :     0.018856
      dxz     :     0.003488
      dyz     :     0.006861
      dx2y2   :     0.002080
      dxy     :     0.003257
      f0      :     0.000096  f :     0.000977
      f+1     :     0.000099
      f-1     :     0.000226
      f+2     :     0.000152
      f-2     :     0.000256
      f+3     :     0.000086
      f-3     :     0.000062


                     *******************************
                     * LOEWDIN POPULATION ANALYSIS *
                     *******************************

----------------------
LOEWDIN ATOMIC CHARGES
----------------------
   0 C :   -0.338224
   1 N :    0.119059
   2 H :    0.192101
   3 H :    0.069616
   4 H :    0.193611
   5 H :    0.126090
   6 H :    0.121866
   7 H :    0.126405
   8 Pb:   -0.154771
   9 Cl:   -0.186839
  10 Cl:   -0.066052
  11 Cl:   -0.202861

-------------------------------
LOEWDIN REDUCED ORBITAL CHARGES
-------------------------------
  0 C s       :     2.857847  s :     2.857847
      pz      :     1.081407  p :     3.127366
      px      :     1.070277
      py      :     0.975683
      dz2     :     0.073621  d :     0.314524
      dxz     :     0.026586
      dyz     :     0.070021
      dx2y2   :     0.089830
      dxy     :     0.054466
      f0      :     0.003781  f :     0.038487
      f+1     :     0.003768
      f-1     :     0.004693
      f+2     :     0.005816
      f-2     :     0.008046
      f+3     :     0.006886
      f-3     :     0.005497
  1 N s       :     2.974897  s :     2.974897
      pz      :     1.209985  p :     3.722199
      px      :     1.285278
      py      :     1.226937
      dz2     :     0.051349  d :     0.172647
      dxz     :     0.014589
      dyz     :     0.026955
      dx2y2   :     0.054116
      dxy     :     0.025639
      f0      :     0.001519  f :     0.011198
      f+1     :     0.001382
      f-1     :     0.001320
      f+2     :     0.001801
      f-2     :     0.001778
      f+3     :     0.001984
      f-3     :     0.001414
  2 H s       :     0.703175  s :     0.703175
      pz      :     0.060142  p :     0.104723
      px      :     0.025434
      py      :     0.019147
  3 H s       :     0.719577  s :     0.719577
      pz      :     0.035856  p :     0.210807
      px      :     0.149295
      py      :     0.025655
  4 H s       :     0.702058  s :     0.702058
      pz      :     0.026081  p :     0.104331
      px      :     0.028258
      py      :     0.049992
  5 H s       :     0.806175  s :     0.806175
      pz      :     0.015834  p :     0.067735
      px      :     0.014240
      py      :     0.037660
  6 H s       :     0.815012  s :     0.815012
      pz      :     0.013182  p :     0.063123
      px      :     0.039191
      py      :     0.010749
  7 H s       :     0.805075  s :     0.805075
      pz      :     0.043435  p :     0.068520
      px      :     0.013557
      py      :     0.011528
  8 Pbs       :     3.676898  s :     3.676898
      pz      :     2.526894  p :     7.529451
      px      :     2.509143
      py      :     2.493414
      dz2     :     2.118904  d :    10.710475
      dxz     :     2.124498
      dyz     :     2.137433
      dx2y2   :     2.193028
      dxy     :     2.136613
      f0      :     0.021534  f :     0.237947
      f+1     :     0.019447
      f-1     :     0.034018
      f+2     :     0.041267
      f-2     :     0.027490
      f+3     :     0.041799
      f-3     :     0.052393
  9 Cls       :     5.728759  s :     5.728759
      pz      :     3.838722  p :    11.413186
      px      :     3.730973
      py      :     3.843492
      dz2     :     0.007948  d :     0.042456
      dxz     :     0.004927
      dyz     :     0.002329
      dx2y2   :     0.019257
      dxy     :     0.007996
      f0      :     0.000174  f :     0.002437
      f+1     :     0.000487
      f-1     :     0.000113
      f+2     :     0.000296
      f-2     :     0.000118
      f+3     :     0.000584
      f-3     :     0.000665
 10 Cls       :     5.672196  s :     5.672196
      pz      :     3.828951  p :    11.319061
      px      :     3.775982
      py      :     3.714128
      dz2     :     0.006078  d :     0.069891
      dxz     :     0.010186
      dyz     :     0.014886
      dx2y2   :     0.030842
      dxy     :     0.007900
      f0      :     0.000748  f :     0.004904
      f+1     :     0.000090
      f-1     :     0.000403
      f+2     :     0.001279
      f-2     :     0.000468
      f+3     :     0.000384
      f-3     :     0.001533
 11 Cls       :     5.741940  s :     5.741940
      pz      :     3.812258  p :    11.422422
      px      :     3.822827
      py      :     3.787338
      dz2     :     0.005046  d :     0.036284
      dxz     :     0.006490
      dyz     :     0.017393
      dx2y2   :     0.002593
      dxy     :     0.004762
      f0      :     0.000110  f :     0.002216
      f+1     :     0.000252
      f-1     :     0.000693
      f+2     :     0.000295
      f-2     :     0.000655
      f+3     :     0.000155
      f-3     :     0.000056


                      *****************************
                      * MAYER POPULATION ANALYSIS *
                      *****************************

  NA   - Mulliken gross atomic population
  ZA   - Total nuclear charge
  QA   - Mulliken gross atomic charge
  VA   - Mayer's total valence
  BVA  - Mayer's bonded valence
  FA   - Mayer's free valence

  ATOM       NA         ZA         QA         VA         BVA        FA
  0 C      6.3523     6.0000    -0.3523     3.7694     3.7694     0.0000
  1 N      7.2675     7.0000    -0.2675     3.3000     3.3000    -0.0000
  2 H      0.7195     1.0000     0.2805     0.9172     0.9172    -0.0000
  3 H      0.7053     1.0000     0.2947     1.0204     1.0204     0.0000
  4 H      0.7183     1.0000     0.2817     0.9184     0.9184    -0.0000
  5 H      0.8087     1.0000     0.1913     0.9735     0.9735    -0.0000
  6 H      0.8384     1.0000     0.1616     0.9722     0.9722     0.0000
  7 H      0.8017     1.0000     0.1983     0.9792     0.9792     0.0000
  8 Pb    21.1689    22.0000     0.8311     1.9272     1.9272    -0.0000
  9 Cl    17.5570    17.0000    -0.5570     0.7352     0.7352    -0.0000
 10 Cl    17.5291    17.0000    -0.5291     0.8049     0.8049     0.0000
 11 Cl    17.5334    17.0000    -0.5334     0.7998     0.7998    -0.0000

  Mayer bond orders larger than 0.1
B(  0-C ,  1-N ) :   0.8489 B(  0-C ,  5-H ) :   0.9577 B(  0-C ,  6-H ) :   0.9665 
B(  0-C ,  7-H ) :   0.9526 B(  1-N ,  2-H ) :   0.8989 B(  1-N ,  3-H ) :   0.7199 
B(  1-N ,  4-H ) :   0.9033 B(  3-H , 10-Cl) :   0.2929 B(  8-Pb,  9-Cl) :   0.6504 
B(  8-Pb, 10-Cl) :   0.4878 B(  8-Pb, 11-Cl) :   0.7786 

-------
TIMINGS
-------

Total SCF time: 0 days 0 hours 5 min 38 sec 

Total time                  ....     338.602 sec
Sum of individual times     ....     317.627 sec  ( 93.8%)

Fock matrix formation       ....     311.596 sec  ( 92.0%)
  Coulomb formation         ....     239.995 sec  ( 77.0% of F)
  Split-RI-J                ....      21.406 sec  (  6.9% of F)
  Chain of spheres X        ....     238.566 sec  ( 76.6% of F)
  COS-X 1 center corr.      ....       0.000 sec  (  0.0% of F)
  XC integration            ....      71.587 sec  ( 23.0% of F)
    Basis function eval.    ....      32.005 sec  ( 44.7% of XC)
    Density eval.           ....      15.433 sec  ( 21.6% of XC)
    XC-Functional eval.     ....       3.704 sec  (  5.2% of XC)
    XC-Potential eval.      ....      19.144 sec  ( 26.7% of XC)
Diagonalization             ....       0.644 sec  (  0.2%)
Density matrix formation    ....       0.041 sec  (  0.0%)
Population analysis         ....       0.069 sec  (  0.0%)
Initial guess               ....       0.117 sec  (  0.0%)
Orbital Transformation      ....       0.000 sec  (  0.0%)
Orbital Orthonormalization  ....       0.114 sec  (  0.0%)
DIIS solution               ....       0.173 sec  (  0.1%)
SOSCF solution              ....       0.074 sec  (  0.0%)
Grid generation             ....       4.913 sec  (  1.5%)

------------------------------------------------------------------------------
                              ORCA MP2 CALCULATION
------------------------------------------------------------------------------


----------------------
RI-MP2 ENERGY+GRADIENT
----------------------
Dimension of the basis                    ...  259
Memory devoted to MP2                     ... 1000 MB   
Data format for buffers                   ... DOUBLE
Compression type for matrix containers    ... UNCOMPRESSED
Overall scaling of the MP2 energy         ...   2.700e-01 Eh
Calculating two index integrals           ... done (    0.011 sec)
Cholesky decomposition of the V-matrix    ... done
Cholesky decomposition of V**-1           ... done (    0.020 sec)

-----------------
RI-TRANSFORMATION (AUX index driven)
-----------------

Dimension of the orbital-basis         ... 259
Dimension of the aux-basis             ... 493
Transformation of internal MOs         ...    0-  45
Transformation of internal/external MOs...    0-  45 to   46- 258
Number Format for Storage              ... Double (8 Byte)
Integral mode                          ... Direct

First Phase: integral generation and transformation of MO indices
  Aux angular momentum 0               ... done (    0.460 sec)
  Aux angular momentum 1               ... done (    0.331 sec)
  Aux angular momentum 2               ... done (    0.373 sec)
  Aux angular momentum 3               ... done (    0.212 sec)
  Aux angular momentum 4               ... done (    0.179 sec)
Closing buffer VIJ ( 0.00 GB; CompressionRatio= 1.95)
Closing buffer VIA ( 0.04 GB; CompressionRatio= 1.00)
  Phase 1 completed in     1.655 sec
Second Phase: sorting and transformation of aux index

IJ-Transformation
Memory available                       ... 990 MB 
Max. # MO pairs treated in a batch     ... 46    
# of internal orbitals                 ... 46
# batches for internal orbitals        ... 1
Closing buffer IJV ( 0.00 GB; CompressionRatio= 1.00)
(ij|v) transformation done in     0.087 sec

IA-Transformation
Memory available                       ... 990 MB 
Max. # MO pairs treated in a batch     ... 46    
# of internal orbitals                 ... 46
# batches for internal orbitals        ... 1
Closing buffer IAV ( 0.04 GB; CompressionRatio= 1.00)
(ia|v) transformation done in     0.341 sec

  Phase 2 completed in     0.448 sec
RI-Integral transformation completed in     2.103 sec
Opening buffers                              ... done

Starting loop over batches of integrals:

Operator 0  - window                       ... (  0- 45)x( 46-258)
Operator 0  - Memory available             ...  1000 MB
Operator 0  - Memory needed per MO         ...   1.6 MB
Operator 0  - Number of orbitals per batch ... 46
Operator 0  - Number of batches            ... 1

OPERATOR  0   PASS   0:  MOs     0 ...   45
  Reading integrals       ... ok
  Internal MO   2
  Internal MO   5
  Internal MO   8
  Internal MO  11
  Internal MO  14
  Internal MO  17
  Internal MO  20
  Internal MO  23
  Internal MO  26
  Internal MO  29
  Internal MO  32
  Internal MO  35
  Internal MO  38
  Internal MO  41
  Internal MO  44
Closing buffer GIPV ( 0.04 GB; CompressionRatio= 1.00)
Time spent in pair loops =    43.637 sec

-----------------------------------------------
 RI-MP2 CORRELATION ENERGY:     -0.581556266 Eh
-----------------------------------------------


---------------------
MP2 DENSITY FORMATION
---------------------

Completing the external part of the density      ... done
Storing the unrelaxed density                    ... done

Calculating the xc-kernel                        ... done
Calculating G(D)                                 ... done
Completing the Lagrangian                        ... done
Solving the Z-vector equations                   ... 

------------------------------------------------------------------------------
                           ORCA CP-SCF CALCULATION
------------------------------------------------------------------------------

Input orbitals are from        ... PbMACl3_mp2_md_3.orca.gbw
Input Perturbation             ... PbMACl3_mp2_md_3.orca.pin.tmp
Wavefunction output            ... PbMACl3_mp2_md_3.orca.pout.tmp
Perturbation mode              ... Real perturbation
Solver                         ... DIIS
   MaxDIIS                     ... 20
   Levelshift                  ...    3.000e-01 Eh
Max. number of iterations      ... 128
Convergence tolerance          ... 1.000e-08
Integral handling              ... Direct
COSX GridX                     ... 1
Number of perturbations        ... 1
Number of operators            ... 1
Orbital ranges used for CP-SCF:
 Operator 0:  Orbitals   0... 45  to  46...258
DFT calculation                         ... on
Exchange functional (SCF)               ... B88
Exchange functional (CP-SCF)            ... B88
   X-Alpha parameter    XAlpha (SCF)    ...  0.666667
   X-Alpha parameter    XAlpha (CP-SCF) ...  0.666667
   Becke's b parameter  XBeta (SCF)     ...  0.004200
   Becke's b parameter  XBeta (CP-SCF)  ...  0.004200
Correlation functional (SCF)            ... LYP
Correlation functional (CP-SCF)         ... LYP
 LDA part of GGA corr.  LDAOpt (SCF)    ... VWN-3
 LDA part of GGA corr.  LDAOpt (CP-SCF) ... VWN-3
Hybrid DFT                              ... on
   Exchange mixing (SCF)                ...  0.530
   Exchange mixing (CP-SCF)             ...  0.530
   GGA exch. scaling(SCF)               ...  0.470
   GGA exch. scaling (CP-SCF)           ...  0.470
   GGA corr. scaling (SCF)              ...  0.730
   GGA corr. scaling (CP-SCF)           ...  0.730
The RIJCOSX approximation is active
Variables per vector in CP-SCF ... 9798
Number of vectors sought       ... 1
Calculating the xc-kernel      ... done

Solving the CP-SCF equations by a DIIS algorithm

-----------------
CP-SCF ITERATIONS
-----------------
  Iteration   0: MaxR=  0.087347148
  Iteration   1: MaxR=  0.040891828
  Iteration   2: MaxR=  0.012373217
  Iteration   3: MaxR=  0.005426798
  Iteration   4: MaxR=  0.002873109
  Iteration   5: MaxR=  0.001226448
  Iteration   6: MaxR=  0.000493657
  Iteration   7: MaxR=  0.000152346
  Iteration   8: MaxR=  0.000059151
  Iteration   9: MaxR=  0.000019199
  Iteration  10: MaxR=  0.000008649
  Iteration  11: MaxR=  0.000003140
  Iteration  12: MaxR=  0.000001337
  Iteration  13: MaxR=  0.000000490
  Iteration  14: MaxR=  0.000000189
  Iteration  15: MaxR=  0.000000066
  Iteration  16: MaxR=  0.000000020
  Iteration  17: MaxR=  0.000000007
                              *** THE CP-SCF HAS CONVERGED *** 
done
Finalizing the relaxed density                   ... done
Transforming P to the AO basis                   ... done
Storing the relaxed density                      ... done

------------------------------------
ENERGY WEIGHTED DENSITY FINALIZATION
------------------------------------

Gathering the parts of the W-matrix              ... done
Forming the Z-density                            ... done
Transforming Z to the AO basis                   ... done
Calculating G(Z)                                 ... done
Finalizing the W-matrix                          ... done
Transforming W to the AO basis and storing       ... done
Entering the RIJONX and RIJCOSX sections
Starting the three-index derivative integrals:
Operator 0  - Memory available             ...  1000 MB
Operator 0  - Memory needed per MO         ...   1.0 MB
Operator 0  - Number of orbitals per batch ... 46
Operator 0  - Number of batches            ... 1

OPERATOR  0   PASS   0:  MOs     0 ...   45

----------------------------------
MP2 DERIVATIVE INTEGRAL GENERATION
----------------------------------


Input Correlated Electron Density   ... PbMACl3_mp2_md_3.orca.pmp2re
Input Energy Weighted Density       ... PbMACl3_mp2_md_3.orca.wmp2.tmp
Input SCF Electron Density          ... PbMACl3_mp2_md_3.orca.scfp.tmp

One-Electron Terms    ...
  ECP gradient                                           ... One-Electron Terms done

-----------------------------------------------------------
MP2 COSX Grid Generation
-----------------------------------------------------------

General Integration Accuracy     IntAcc      ...  4.340
Radial Grid Type                 RadialGrid  ... Gauss-Chebyshev
Angular Grid (max. acc.)         AngularGrid ... Lebedev-302
Angular grid pruning method      GridPruning ... 3 (G Style)
Weight generation scheme         WeightScheme... Becke
Basis function cutoff            BFCut       ...    1.0000e-11
Integration weight cutoff        WCut        ...    1.0000e-14
Grids for H and He will be reduced by one unit

# of grid points (after initial pruning)     ...  57718 (   0.0 sec)
# of grid points (after weights+screening)   ...  54215 (   0.1 sec)
nearest neighbour list constructed           ...    0.0 sec
Grid point re-assignment to atoms done       ...    0.0 sec
Grid point division into batches done        ...    0.2 sec
Reduced shell lists constructed in    1.5 sec

Total number of grid points                  ...    54215
Total number of batches                      ...      853
Average number of points per batch           ...       63
Average number of grid points per atom       ...     4518
Average number of shells per batch           ...    56.64 (56.08%)
Average number of basis functions per batch  ...   150.25 (58.01%)
Average number of large shells per batch     ...    43.12 (76.12%)
Average number of large basis fcns per batch ...   112.15 (74.64%)
Maximum spatial batch extension              ...  31.46, 29.76, 31.84 au
Average spatial batch extension              ...   2.99,  2.99,  3.17 au

Overlap Fitting                  UseSFitting ... on
Two electron COSX terms .... 
Integration Timings:
Total Time                  =    85.0 sec
Basis fcn evaluation        =     0.7 sec
Density evaluation          =     1.0 sec
Integral evaluation         =    81.3 sec
K(P) evaluation             =     0.8 sec
                          .... COSX two electron terms done
COSX two-electron contribution to the gradient
     0:    -0.020948     0.062796     0.038189
     1:    -0.015290    -0.085791    -0.058106
     2:     0.038297    -0.005670     0.209904
     3:    -0.144443    -0.004661    -0.010669
     4:     0.072466     0.183621    -0.087205
     5:    -0.049389    -0.149605     0.061507
     6:     0.167949     0.001852     0.008067
     7:    -0.039307    -0.012800    -0.163780
     8:    -0.010032     0.034043    -0.030667
     9:     0.059817    -0.009538    -0.015224
    10:    -0.021580     0.039549    -0.005373
    11:    -0.036970    -0.052963     0.053639
Exchange-correlation gradient    ... done
Dispersion correction            ... 
Entering the calculation of the dispersion correction...

Checking the input atom types...

Done
done

                *********************************************
                * UNRELAXED MP2 DENSITY POPULATION ANALYSIS *
                *********************************************

------------------------------------------------------------------------------
                           ORCA POPULATION ANALYSIS
------------------------------------------------------------------------------
Input electron density              ... PbMACl3_mp2_md_3.orca.pmp2ur
BaseName (.gbw .S,...)              ... PbMACl3_mp2_md_3.orca

                    ********************************
                    * MULLIKEN POPULATION ANALYSIS *
                    ********************************

-----------------------
MULLIKEN ATOMIC CHARGES
-----------------------
   0 C :   -0.357438
   1 N :   -0.266679
   2 H :    0.280629
   3 H :    0.293495
   4 H :    0.281890
   5 H :    0.192015
   6 H :    0.162657
   7 H :    0.198863
   8 Pb:    0.815781
   9 Cl:   -0.550663
  10 Cl:   -0.523817
  11 Cl:   -0.526734
Sum of atomic charges:   -0.0000000

--------------------------------
MULLIKEN REDUCED ORBITAL CHARGES
--------------------------------
  0 C s       :     3.296252  s :     3.296252
      pz      :     1.044078  p :     2.970243
      px      :     1.065931
      py      :     0.860235
      dz2     :     0.019812  d :     0.083476
      dxz     :     0.008894
      dyz     :     0.018712
      dx2y2   :     0.022518
      dxy     :     0.013541
      f0      :     0.001235  f :     0.007467
      f+1     :     0.000706
      f-1     :     0.000965
      f+2     :     0.000970
      f-2     :     0.001046
      f+3     :     0.001457
      f-3     :     0.001088
  1 N s       :     3.399820  s :     3.399820
      pz      :     1.227606  p :     3.804767
      px      :     1.351793
      py      :     1.225368
      dz2     :     0.016254  d :     0.058621
      dxz     :     0.006116
      dyz     :     0.008910
      dx2y2   :     0.018338
      dxy     :     0.009003
      f0      :     0.000782  f :     0.003472
      f+1     :     0.000410
      f-1     :     0.000389
      f+2     :     0.000396
      f-2     :     0.000307
      f+3     :     0.000767
      f-3     :     0.000422
  2 H s       :     0.684358  s :     0.684358
      pz      :     0.020942  p :     0.035013
      px      :     0.007731
      py      :     0.006340
  3 H s       :     0.646792  s :     0.646792
      pz      :     0.011366  p :     0.059713
      px      :     0.039656
      py      :     0.008691
  4 H s       :     0.682936  s :     0.682936
      pz      :     0.008536  p :     0.035175
      px      :     0.008735
      py      :     0.017904
  5 H s       :     0.783062  s :     0.783062
      pz      :     0.005474  p :     0.024922
      px      :     0.004838
      py      :     0.014611
  6 H s       :     0.814337  s :     0.814337
      pz      :     0.004478  p :     0.023006
      px      :     0.014789
      py      :     0.003738
  7 H s       :     0.776229  s :     0.776229
      pz      :     0.015662  p :     0.024908
      px      :     0.004694
      py      :     0.004552
  8 Pbs       :     3.909075  s :     3.909075
      pz      :     2.398254  p :     7.041444
      px      :     2.347813
      py      :     2.295377
      dz2     :     2.026520  d :    10.123294
      dxz     :     2.026829
      dyz     :     2.018172
      dx2y2   :     2.030207
      dxy     :     2.021566
      f0      :     0.012541  f :     0.110406
      f+1     :     0.011637
      f-1     :     0.015743
      f+2     :     0.018616
      f-2     :     0.013237
      f+3     :     0.018638
      f-3     :     0.019993
  9 Cls       :     5.947000  s :     5.947000
      pz      :     3.883674  p :    11.539772
      px      :     3.754977
      py      :     3.901122
      dz2     :     0.011171  d :     0.060123
      dxz     :     0.011848
      dyz     :     0.009474
      dx2y2   :     0.015303
      dxy     :     0.012327
      f0      :     0.000479  f :     0.003767
      f+1     :     0.000554
      f-1     :     0.000444
      f+2     :     0.000556
      f-2     :     0.000473
      f+3     :     0.000612
      f-3     :     0.000650
 10 Cls       :     5.944586  s :     5.944586
      pz      :     3.878284  p :    11.503083
      px      :     3.878507
      py      :     3.746291
      dz2     :     0.010674  d :     0.071459
      dxz     :     0.013497
      dyz     :     0.014306
      dx2y2   :     0.019190
      dxy     :     0.013791
      f0      :     0.000669  f :     0.004690
      f+1     :     0.000470
      f-1     :     0.000607
      f+2     :     0.000842
      f-2     :     0.000611
      f+3     :     0.000652
      f-3     :     0.000838
 11 Cls       :     5.945236  s :     5.945236
      pz      :     3.845075  p :    11.520480
      px      :     3.858262
      py      :     3.817143
      dz2     :     0.010952  d :     0.057345
      dxz     :     0.011192
      dyz     :     0.014530
      dx2y2   :     0.009764
      dxy     :     0.010907
      f0      :     0.000488  f :     0.003673
      f+1     :     0.000484
      f-1     :     0.000617
      f+2     :     0.000540
      f-2     :     0.000639
      f+3     :     0.000463
      f-3     :     0.000441


                     *******************************
                     * LOEWDIN POPULATION ANALYSIS *
                     *******************************

----------------------
LOEWDIN ATOMIC CHARGES
----------------------
   0 C :   -0.341656
   1 N :    0.118432
   2 H :    0.192166
   3 H :    0.069656
   4 H :    0.193693
   5 H :    0.126689
   6 H :    0.122592
   7 H :    0.126972
   8 Pb:   -0.165043
   9 Cl:   -0.182367
  10 Cl:   -0.063264
  11 Cl:   -0.197870

-------------------------------
LOEWDIN REDUCED ORBITAL CHARGES
-------------------------------
  0 C s       :     2.857241  s :     2.857241
      pz      :     1.078625  p :     3.120023
      px      :     1.067674
      py      :     0.973723
      dz2     :     0.075545  d :     0.324083
      dxz     :     0.028700
      dyz     :     0.071837
      dx2y2   :     0.091652
      dxy     :     0.056349
      f0      :     0.004111  f :     0.040309
      f+1     :     0.004012
      f-1     :     0.004911
      f+2     :     0.006053
      f-2     :     0.008287
      f+3     :     0.007218
      f-3     :     0.005717
  1 N s       :     2.974281  s :     2.974281
      pz      :     1.206692  p :     3.711062
      px      :     1.281307
      py      :     1.223062
      dz2     :     0.053508  d :     0.183686
      dxz     :     0.016764
      dyz     :     0.029113
      dx2y2   :     0.056406
      dxy     :     0.027895
      f0      :     0.001741  f :     0.012539
      f+1     :     0.001563
      f-1     :     0.001488
      f+2     :     0.001983
      f-2     :     0.001959
      f+3     :     0.002213
      f-3     :     0.001592
  2 H s       :     0.701703  s :     0.701703
      pz      :     0.060894  p :     0.106131
      px      :     0.025768
      py      :     0.019469
  3 H s       :     0.718801  s :     0.718801
      pz      :     0.036188  p :     0.211543
      px      :     0.149314
      py      :     0.026042
  4 H s       :     0.700584  s :     0.700584
      pz      :     0.026442  p :     0.105723
      px      :     0.028619
      py      :     0.050662
  5 H s       :     0.803635  s :     0.803635
      pz      :     0.016405  p :     0.069675
      px      :     0.014763
      py      :     0.038507
  6 H s       :     0.812404  s :     0.812404
      pz      :     0.013616  p :     0.065005
      px      :     0.040179
      py      :     0.011210
  7 H s       :     0.802603  s :     0.802603
      pz      :     0.044331  p :     0.070425
      px      :     0.014053
      py      :     0.012041
  8 Pbs       :     3.660205  s :     3.660205
      pz      :     2.533970  p :     7.551444
      px      :     2.516679
      py      :     2.500795
      dz2     :     2.112887  d :    10.679755
      dxz     :     2.118229
      dyz     :     2.131464
      dx2y2   :     2.186698
      dxy     :     2.130477
      f0      :     0.026743  f :     0.273638
      f+1     :     0.024596
      f-1     :     0.039085
      f+2     :     0.046344
      f-2     :     0.032618
      f+3     :     0.046902
      f-3     :     0.057351
  9 Cls       :     5.724416  s :     5.724416
      pz      :     3.824463  p :    11.370733
      px      :     3.717112
      py      :     3.829157
      dz2     :     0.015810  d :     0.081945
      dxz     :     0.012835
      dyz     :     0.010200
      dx2y2   :     0.027172
      dxy     :     0.015928
      f0      :     0.000570  f :     0.005273
      f+1     :     0.000891
      f-1     :     0.000500
      f+2     :     0.000705
      f-2     :     0.000516
      f+3     :     0.001004
      f-3     :     0.001088
 10 Cls       :     5.668080  s :     5.668080
      pz      :     3.814922  p :    11.277527
      px      :     3.761927
      py      :     3.700678
      dz2     :     0.014078  d :     0.109794
      dxz     :     0.018158
      dyz     :     0.022775
      dx2y2   :     0.038821
      dxy     :     0.015962
      f0      :     0.001151  f :     0.007863
      f+1     :     0.000493
      f-1     :     0.000821
      f+2     :     0.001707
      f-2     :     0.000885
      f+3     :     0.000827
      f-3     :     0.001979
 11 Cls       :     5.737524  s :     5.737524
      pz      :     3.798272  p :    11.380574
      px      :     3.808860
      py      :     3.773442
      dz2     :     0.012764  d :     0.074795
      dxz     :     0.014216
      dyz     :     0.025128
      dx2y2   :     0.010248
      dxy     :     0.012439
      f0      :     0.000509  f :     0.004978
      f+1     :     0.000645
      f-1     :     0.001099
      f+2     :     0.000692
      f-2     :     0.001058
      f+3     :     0.000538
      f-3     :     0.000438


                      *****************************
                      * MAYER POPULATION ANALYSIS *
                      *****************************

  NA   - Mulliken gross atomic population
  ZA   - Total nuclear charge
  QA   - Mulliken gross atomic charge
  VA   - Mayer's total valence
  BVA  - Mayer's bonded valence
  FA   - Mayer's free valence

  ATOM       NA         ZA         QA         VA         BVA        FA
  0 C      6.3574     6.0000    -0.3574     3.8212     3.7005     0.1207
  1 N      7.2667     7.0000    -0.2667     3.3717     3.2364     0.1354
  2 H      0.7194     1.0000     0.2806     0.9191     0.9014     0.0177
  3 H      0.7065     1.0000     0.2935     1.0224     1.0028     0.0196
  4 H      0.7181     1.0000     0.2819     0.9202     0.9026     0.0176
  5 H      0.8080     1.0000     0.1920     0.9761     0.9570     0.0191
  6 H      0.8373     1.0000     0.1627     0.9747     0.9561     0.0187
  7 H      0.8011     1.0000     0.1989     0.9818     0.9626     0.0191
  8 Pb    21.1842    22.0000     0.8158     2.2386     1.8691     0.3695
  9 Cl    17.5507    17.0000    -0.5507     0.9751     0.7123     0.2628
 10 Cl    17.5238    17.0000    -0.5238     1.0405     0.7820     0.2586
 11 Cl    17.5267    17.0000    -0.5267     1.0360     0.7746     0.2615

  Mayer bond orders larger than 0.1
B(  0-C ,  1-N ) :   0.8280 B(  0-C ,  5-H ) :   0.9421 B(  0-C ,  6-H ) :   0.9513 
B(  0-C ,  7-H ) :   0.9371 B(  1-N ,  2-H ) :   0.8839 B(  1-N ,  3-H ) :   0.7085 
B(  1-N ,  4-H ) :   0.8883 B(  3-H , 10-Cl) :   0.2876 B(  8-Pb,  9-Cl) :   0.6305 
B(  8-Pb, 10-Cl) :   0.4734 B(  8-Pb, 11-Cl) :   0.7550 


                *******************************************
                * RELAXED MP2 DENSITY POPULATION ANALYSIS *
                *******************************************

------------------------------------------------------------------------------
                           ORCA POPULATION ANALYSIS
------------------------------------------------------------------------------
Input electron density              ... PbMACl3_mp2_md_3.orca.pmp2re
BaseName (.gbw .S,...)              ... PbMACl3_mp2_md_3.orca

                    ********************************
                    * MULLIKEN POPULATION ANALYSIS *
                    ********************************

-----------------------
MULLIKEN ATOMIC CHARGES
-----------------------
   0 C :   -0.377025
   1 N :   -0.266596
   2 H :    0.281087
   3 H :    0.285477
   4 H :    0.282450
   5 H :    0.196033
   6 H :    0.166168
   7 H :    0.200551
   8 Pb:    0.763117
   9 Cl:   -0.527078
  10 Cl:   -0.501120
  11 Cl:   -0.503064
Sum of atomic charges:   -0.0000000

--------------------------------
MULLIKEN REDUCED ORBITAL CHARGES
--------------------------------
  0 C s       :     3.300847  s :     3.300847
      pz      :     1.049565  p :     2.989512
      px      :     1.071708
      py      :     0.868239
      dz2     :     0.018529  d :     0.079361
      dxz     :     0.008594
      dyz     :     0.017973
      dx2y2   :     0.021348
      dxy     :     0.012917
      f0      :     0.001202  f :     0.007305
      f+1     :     0.000688
      f-1     :     0.000959
      f+2     :     0.000944
      f-2     :     0.001014
      f+3     :     0.001417
      f-3     :     0.001079
  1 N s       :     3.401655  s :     3.401655
      pz      :     1.229267  p :     3.803982
      px      :     1.350261
      py      :     1.224454
      dz2     :     0.015830  d :     0.057540
      dxz     :     0.006062
      dyz     :     0.008600
      dx2y2   :     0.018290
      dxy     :     0.008759
      f0      :     0.000758  f :     0.003419
      f+1     :     0.000406
      f-1     :     0.000392
      f+2     :     0.000393
      f-2     :     0.000300
      f+3     :     0.000748
      f-3     :     0.000423
  2 H s       :     0.684305  s :     0.684305
      pz      :     0.020351  p :     0.034608
      px      :     0.007840
      py      :     0.006417
  3 H s       :     0.655332  s :     0.655332
      pz      :     0.011441  p :     0.059191
      px      :     0.038938
      py      :     0.008811
  4 H s       :     0.682802  s :     0.682802
      pz      :     0.008502  p :     0.034749
      px      :     0.008784
      py      :     0.017463
  5 H s       :     0.779426  s :     0.779426
      pz      :     0.005467  p :     0.024541
      px      :     0.004905
      py      :     0.014169
  6 H s       :     0.811187  s :     0.811187
      pz      :     0.004570  p :     0.022645
      px      :     0.014240
      py      :     0.003834
  7 H s       :     0.774931  s :     0.774931
      pz      :     0.015101  p :     0.024518
      px      :     0.004769
      py      :     0.004648
  8 Pbs       :     3.923649  s :     3.923649
      pz      :     2.402701  p :     7.081663
      px      :     2.362779
      py      :     2.316183
      dz2     :     2.026252  d :    10.123052
      dxz     :     2.027225
      dyz     :     2.017277
      dx2y2   :     2.029409
      dxy     :     2.022889
      f0      :     0.012357  f :     0.108518
      f+1     :     0.011393
      f-1     :     0.015427
      f+2     :     0.018323
      f-2     :     0.013004
      f+3     :     0.018373
      f-3     :     0.019641
  9 Cls       :     5.947666  s :     5.947666
      pz      :     3.874787  p :    11.515408
      px      :     3.746967
      py      :     3.893653
      dz2     :     0.011231  d :     0.060227
      dxz     :     0.011715
      dyz     :     0.009526
      dx2y2   :     0.015438
      dxy     :     0.012318
      f0      :     0.000479  f :     0.003778
      f+1     :     0.000555
      f-1     :     0.000445
      f+2     :     0.000558
      f-2     :     0.000474
      f+3     :     0.000614
      f-3     :     0.000652
 10 Cls       :     5.944378  s :     5.944378
      pz      :     3.870014  p :    11.479737
      px      :     3.869059
      py      :     3.740664
      dz2     :     0.010673  d :     0.072285
      dxz     :     0.013688
      dyz     :     0.014555
      dx2y2   :     0.019458
      dxy     :     0.013911
      f0      :     0.000672  f :     0.004720
      f+1     :     0.000473
      f-1     :     0.000610
      f+2     :     0.000846
      f-2     :     0.000618
      f+3     :     0.000659
      f-3     :     0.000841
 11 Cls       :     5.945983  s :     5.945983
      pz      :     3.836587  p :    11.496237
      px      :     3.850146
      py      :     3.809504
      dz2     :     0.011014  d :     0.057162
      dxz     :     0.011128
      dyz     :     0.014501
      dx2y2   :     0.009769
      dxy     :     0.010751
      f0      :     0.000490  f :     0.003681
      f+1     :     0.000485
      f-1     :     0.000618
      f+2     :     0.000543
      f-2     :     0.000637
      f+3     :     0.000463
      f-3     :     0.000444


                     *******************************
                     * LOEWDIN POPULATION ANALYSIS *
                     *******************************

----------------------
LOEWDIN ATOMIC CHARGES
----------------------
   0 C :   -0.351882
   1 N :    0.114722
   2 H :    0.192946
   3 H :    0.068034
   4 H :    0.194411
   5 H :    0.128713
   6 H :    0.124456
   7 H :    0.128412
   8 Pb:   -0.192660
   9 Cl:   -0.169393
  10 Cl:   -0.054156
  11 Cl:   -0.183602

-------------------------------
LOEWDIN REDUCED ORBITAL CHARGES
-------------------------------
  0 C s       :     2.859246  s :     2.859246
      pz      :     1.082865  p :     3.132942
      px      :     1.071428
      py      :     0.978648
      dz2     :     0.074298  d :     0.319669
      dxz     :     0.028403
      dyz     :     0.070820
      dx2y2   :     0.090484
      dxy     :     0.055665
      f0      :     0.004054  f :     0.040026
      f+1     :     0.003993
      f-1     :     0.004879
      f+2     :     0.006003
      f-2     :     0.008249
      f+3     :     0.007178
      f-3     :     0.005669
  1 N s       :     2.975731  s :     2.975731
      pz      :     1.208430  p :     3.713096
      px      :     1.281410
      py      :     1.223256
      dz2     :     0.053281  d :     0.183846
      dxz     :     0.016879
      dyz     :     0.028960
      dx2y2   :     0.056870
      dxy     :     0.027856
      f0      :     0.001737  f :     0.012604
      f+1     :     0.001574
      f-1     :     0.001489
      f+2     :     0.002001
      f-2     :     0.001977
      f+3     :     0.002233
      f-3     :     0.001594
  2 H s       :     0.701074  s :     0.701074
      pz      :     0.060464  p :     0.105981
      px      :     0.025954
      py      :     0.019563
  3 H s       :     0.720964  s :     0.720964
      pz      :     0.036217  p :     0.211002
      px      :     0.148657
      py      :     0.026128
  4 H s       :     0.700055  s :     0.700055
      pz      :     0.026420  p :     0.105535
      px      :     0.028763
      py      :     0.050352
  5 H s       :     0.801355  s :     0.801355
      pz      :     0.016528  p :     0.069932
      px      :     0.014960
      py      :     0.038444
  6 H s       :     0.810348  s :     0.810348
      pz      :     0.013835  p :     0.065196
      px      :     0.039918
      py      :     0.011444
  7 H s       :     0.800981  s :     0.800981
      pz      :     0.044082  p :     0.070607
      px      :     0.014251
      py      :     0.012274
  8 Pbs       :     3.673879  s :     3.673879
      pz      :     2.533716  p :     7.573871
      px      :     2.525725
      py      :     2.514429
      dz2     :     2.111741  d :    10.673761
      dxz     :     2.117546
      dyz     :     2.129602
      dx2y2   :     2.184342
      dxy     :     2.130529
      f0      :     0.026407  f :     0.271150
      f+1     :     0.024280
      f-1     :     0.038653
      f+2     :     0.046034
      f-2     :     0.032267
      f+3     :     0.046540
      f-3     :     0.056968
  9 Cls       :     5.727621  s :     5.727621
      pz      :     3.817432  p :    11.353319
      px      :     3.712230
      py      :     3.823657
      dz2     :     0.016006  d :     0.083095
      dxz     :     0.012964
      dyz     :     0.010265
      dx2y2   :     0.027666
      dxy     :     0.016195
      f0      :     0.000580  f :     0.005358
      f+1     :     0.000899
      f-1     :     0.000502
      f+2     :     0.000720
      f-2     :     0.000522
      f+3     :     0.001023
      f-3     :     0.001112
 10 Cls       :     5.671384  s :     5.671384
      pz      :     3.809477  p :    11.262877
      px      :     3.755386
      py      :     3.698014
      dz2     :     0.014307  d :     0.111911
      dxz     :     0.018433
      dyz     :     0.023121
      dx2y2   :     0.039765
      dxy     :     0.016285
      f0      :     0.001158  f :     0.007984
      f+1     :     0.000497
      f-1     :     0.000846
      f+2     :     0.001721
      f-2     :     0.000893
      f+3     :     0.000847
      f-3     :     0.002023
 11 Cls       :     5.740655  s :     5.740655
      pz      :     3.791814  p :    11.362187
      px      :     3.802456
      py      :     3.767917
      dz2     :     0.012843  d :     0.075696
      dxz     :     0.014421
      dyz     :     0.025580
      dx2y2   :     0.010341
      dxy     :     0.012512
      f0      :     0.000516  f :     0.005063
      f+1     :     0.000654
      f-1     :     0.001114
      f+2     :     0.000704
      f-2     :     0.001087
      f+3     :     0.000546
      f-3     :     0.000442


                      *****************************
                      * MAYER POPULATION ANALYSIS *
                      *****************************

  NA   - Mulliken gross atomic population
  ZA   - Total nuclear charge
  QA   - Mulliken gross atomic charge
  VA   - Mayer's total valence
  BVA  - Mayer's bonded valence
  FA   - Mayer's free valence

  ATOM       NA         ZA         QA         VA         BVA        FA
  0 C      6.3770     6.0000    -0.3770     3.8188     3.6985     0.1203
  1 N      7.2666     7.0000    -0.2666     3.3756     3.2406     0.1351
  2 H      0.7189     1.0000     0.2811     0.9187     0.9010     0.0177
  3 H      0.7145     1.0000     0.2855     1.0294     1.0099     0.0195
  4 H      0.7176     1.0000     0.2824     0.9198     0.9023     0.0175
  5 H      0.8040     1.0000     0.1960     0.9773     0.9583     0.0190
  6 H      0.8338     1.0000     0.1662     0.9730     0.9544     0.0186
  7 H      0.7994     1.0000     0.2006     0.9850     0.9660     0.0190
  8 Pb    21.2369    22.0000     0.7631     2.3220     1.9586     0.3634
  9 Cl    17.5271    17.0000    -0.5271     1.0189     0.7576     0.2613
 10 Cl    17.5011    17.0000    -0.5011     1.0847     0.8273     0.2574
 11 Cl    17.5031    17.0000    -0.5031     1.0784     0.8186     0.2598

  Mayer bond orders larger than 0.1
B(  0-C ,  1-N ) :   0.8344 B(  0-C ,  5-H ) :   0.9376 B(  0-C ,  6-H ) :   0.9475 
B(  0-C ,  7-H ) :   0.9328 B(  1-N ,  2-H ) :   0.8819 B(  1-N ,  3-H ) :   0.7033 
B(  1-N ,  4-H ) :   0.8867 B(  3-H , 10-Cl) :   0.2987 B(  8-Pb,  9-Cl) :   0.6587 
B(  8-Pb, 10-Cl) :   0.4933 B(  8-Pb, 11-Cl) :   0.7927 


-------
TIMINGS
-------

Total time                :  488.476 sec
Integral trafo            :    2.112 sec (  0.4%)
I/O of integrals          :    0.154 sec (  0.0%)
K(i,j) Operators          :    5.803 sec (  1.2%)
T(i,j) pair energies      :    1.097 sec (  0.2%)
V-calculation             :    0.011 sec (  0.0%)
V**(-1/2)                 :    0.020 sec (  0.0%)
Gamma(ia|P)               :    5.293 sec (  1.1%)
Gamma-Trafo               :    0.727 sec (  0.1%)
D(virtual)                :    2.361 sec (  0.5%)
D(internal)               :    3.556 sec (  0.7%)
W(virtual)                :    4.765 sec (  1.0%)
W(internal)               :   14.481 sec (  3.0%)
L(virtual)                :    4.954 sec (  1.0%)
L(internal)               :    0.220 sec (  0.0%)
G(D)                      :   13.176 sec (  2.7%)
G(Z)                      :   14.190 sec (  2.9%)
Z-Vector Solution         :  308.850 sec ( 63.2%)
Z-Vector Solution         :  308.850 sec ( 63.2%)
3-Index Derivative 
+ Separable RIJ part      :    4.069 sec (  0.8%)
2-Index Derivative 
+ Separable RIJ part      :    0.029 sec (  0.0%)
Separable Gradient (COSX) :  100.179 sec ( 20.5%)


---------------------------------------
MP2 TOTAL ENERGY:    -1669.551978052 Eh
---------------------------------------

The final MP2 gradient
  0:  -0.01053234   0.00879369   0.00563315
  1:  -0.05447712  -0.00785830  -0.01837193
  2:  -0.00279775  -0.00361744  -0.00685767
  3:   0.02581814   0.00066429   0.00485472
  4:  -0.00068378  -0.00737859  -0.00048507
  5:  -0.00090952  -0.00868731  -0.00018994
  6:   0.00258065  -0.00232886  -0.00195832
  7:   0.00008261  -0.00374358  -0.00836723
  8:   0.03286027   0.04662567   0.04375570
  9:  -0.02395314   0.01588350   0.00591279
 10:   0.03262607  -0.04419256  -0.00636148
 11:   0.00000600   0.00670859  -0.01722278

-----------------------------------
NORM OF THE MP2 GRADIENT:  0.118346
-----------------------------------

Entering the calculation of the dispersion correction...

Checking the input atom types...

Done


-------------------------------------------------------------------------------
                          DFT DISPERSION CORRECTION                            
                                                                               
                                DFTD3 V2.1  Rev 6                               
                          USING Becke-Johnson damping                          
-------------------------------------------------------------------------------
The B2PLYP functional is recognized
Active option DFTDOPT                   ...         4   

molecular C6(AA) [au] = 4865.371648 


            DFT-D V3
 parameters
 s6 scaling factor         :     0.6400 
 a1 scaling factor         :     0.3065 
 s8 scaling factor         :     0.9147 
 a2 scaling factor         :     5.0570 
 ad hoc parameters k1-k3   :    16.0000     1.3333    -4.0000 

 Edisp/kcal,au: -8.684752270758  -0.013840032228 
 E6   /kcal   :  -3.952849997 
 E8   /kcal   :  -4.731902274 
 % E8         :  54.485172709 

-------------------------   ----------------
Dispersion correction           -0.013840032
-------------------------   ----------------


-------------------------   --------------------
FINAL SINGLE POINT ENERGY     -1669.565818084253
-------------------------   --------------------


                            ***************************************
                            *     ORCA property calculations      *
                            ***************************************


  WARNING: The energy has been calculated at the MP2 level but the densities
           used in the property calculations are still SCF densities
           MP2 response densities have not been calculated 
           use %mp2 Density relaxed end
           or  %mp2 Density unrelaxed end

                                    ---------------------
                                    Active property flags
                                    ---------------------
   (+) Dipole Moment


------------------------------------------------------------------------------
                       ORCA ELECTRIC PROPERTIES CALCULATION
------------------------------------------------------------------------------

Dipole Moment Calculation                       ... on
Quadrupole Moment Calculation                   ... off
Polarizability Calculation                      ... off
GBWName                                         ... PbMACl3_mp2_md_3.orca.gbw
Electron density file                           ... PbMACl3_mp2_md_3.orca.scfp.tmp

-------------
DIPOLE MOMENT
-------------
                                X             Y             Z
Electronic contribution:    -64.39084     -46.10198     -50.27855
Nuclear contribution   :     66.63892      49.98985      51.20301
                        -----------------------------------------
Total Dipole Moment    :      2.24808       3.88787       0.92445
                        -----------------------------------------
Magnitude (a.u.)       :      4.58519
Magnitude (Debye)      :     11.65464


                         *** MP2 UNRELAXED DENSITY ***

------------------------------------------------------------------------------
                       ORCA ELECTRIC PROPERTIES CALCULATION
------------------------------------------------------------------------------

Dipole Moment Calculation                       ... on
Quadrupole Moment Calculation                   ... off
Polarizability Calculation                      ... off
GBWName                                         ... PbMACl3_mp2_md_3.orca.gbw
Electron density file                           ... PbMACl3_mp2_md_3.orca.pmp2ur

-------------
DIPOLE MOMENT
-------------
                                X             Y             Z
Electronic contribution:    -64.39310     -46.11569     -50.27485
Nuclear contribution   :     66.63892      49.98985      51.20301
                        -----------------------------------------
Total Dipole Moment    :      2.24582       3.87416       0.92815
                        -----------------------------------------
Magnitude (a.u.)       :      4.57321
Magnitude (Debye)      :     11.62419


                           *** MP2 RELAXED DENSITY ***

------------------------------------------------------------------------------
                       ORCA ELECTRIC PROPERTIES CALCULATION
------------------------------------------------------------------------------

Dipole Moment Calculation                       ... on
Quadrupole Moment Calculation                   ... off
Polarizability Calculation                      ... off
GBWName                                         ... PbMACl3_mp2_md_3.orca.gbw
Electron density file                           ... PbMACl3_mp2_md_3.orca.pmp2re

-------------
DIPOLE MOMENT
-------------
                                X             Y             Z
Electronic contribution:    -64.43780     -46.18002     -50.30511
Nuclear contribution   :     66.63892      49.98985      51.20301
                        -----------------------------------------
Total Dipole Moment    :      2.20112       3.80983       0.89790
                        -----------------------------------------
Magnitude (a.u.)       :      4.49065
Magnitude (Debye)      :     11.41432


Timings for individual modules:

Sum of individual times         ...      832.530 sec (=  13.875 min)
GTO integral calculation        ...        2.181 sec (=   0.036 min)   0.3 %
SCF iterations                  ...      340.726 sec (=   5.679 min)  40.9 %
MP2 module                      ...      489.623 sec (=   8.160 min)  58.8 %
                             ****ORCA TERMINATED NORMALLY****
TOTAL RUN TIME: 0 days 0 hours 13 minutes 53 seconds 931 msec
