
                                 *****************
                                 * O   R   C   A *
                                 *****************

           --- An Ab Initio, DFT and Semiempirical electronic structure package ---

                  #######################################################
                  #                        -***-                        #
                  #  Department of molecular theory and spectroscopy    #
                  #              Directorship: Frank Neese              #
                  # Max Planck Institute for Chemical Energy Conversion #
                  #                  D-45470 Muelheim/Ruhr              #
                  #                       Germany                       #
                  #                                                     #
                  #                  All rights reserved                #
                  #                        -***-                        #
                  #######################################################


                         Program Version 3.0.3 - RELEASE   -


 With contributions from (in alphabetic order):
   Ute Becker             : Parallelization
   Dmytro Bykov           : SCF Hessian
   Dmitry Ganyushin       : Spin-Orbit,Spin-Spin,Magnetic field MRCI
   Andreas Hansen         : Spin unrestricted coupled pair/coupled cluster methods
   Dimitrios Liakos       : Extrapolation schemes; parallel MDCI
   Robert Izsak           : Overlap fitted RIJCOSX, COSX-SCS-MP3
   Christian Kollmar      : KDIIS, OOCD, Brueckner-CCSD(T), CCSD density
   Simone Kossmann        : Meta GGA functionals, TD-DFT gradient, OOMP2, MP2 Hessian
   Taras Petrenko         : DFT Hessian,TD-DFT gradient, ASA and ECA modules, normal mode analysis, Resonance Raman, ABS, FL, XAS/XES, NRVS
   Christoph Reimann      : Effective Core Potentials
   Michael Roemelt        : Restricted open shell CIS
   Christoph Riplinger    : Improved optimizer, TS searches, QM/MM, DLPNO-CCSD
   Barbara Sandhoefer     : DKH picture change effects
   Igor Schapiro          : Molecular dynamics
   Kantharuban Sivalingam : CASSCF convergence, NEVPT2
   Boris Wezisla          : Elementary symmetry handling
   Frank Wennmohs         : Technical directorship


 We gratefully acknowledge several colleagues who have allowed us to
 interface, adapt or use parts of their codes:
   Stefan Grimme, W. Hujo, H. Kruse, T. Risthaus : VdW corrections, initial TS optimization,
                                                   DFT functionals, gCP
   Ed Valeev                                     : LibInt (2-el integral package), F12 methods
   Garnet Chan, S. Sharma, R. Olivares           : DMRG
   Ulf Ekstrom                                   : XCFun DFT Library
   Mihaly Kallay                                 : mrcc  (arbitrary order and MRCC methods)
   Andreas Klamt, Michael Diedenhofen            : otool_cosmo (COSMO solvation model)
   Frank Weinhold                                : gennbo (NPA and NBO analysis)
   Christopher J. Cramer and Donald G. Truhlar   : smd solvation model


 Your calculation uses the libint2 library for the computation of 2-el integrals
 For citations please refer to: http://libint.valeyev.net

 This ORCA versions uses:
   CBLAS   interface :  Fast vector & matrix operations
   LAPACKE interface :  Fast linear algebra routines
   SCALAPACK package :  Parallel linear algebra routines


Your calculation utilizes the basis: Ahlrichs-TZV
Cite in your paper:
H - Kr: A. Schaefer, H. Horn and R. Ahlrichs, J. Chem. Phys. 97, 2571 (1992).

The def2-TZV basis will be loaded
Cite in your paper:
 	F. Weigend, R. Ahlrichs, Phys. Chem. Chem. Phys. 2005, 7, 3297.

Your calculation utilizes the geometrical counterpoise correction gCP
Please cite in your paper:
H.Kruse, S. Grimme J.Chem.Phys., 136, (2012), 154101 
   

================================================================================
                                        WARNINGS
                       Please study these warnings very carefully!
================================================================================
Now building the actual basis set
cite the ECPs for Pb [SD(60,MDF)] as follows:
  B. Metz, H. Stoll, M. Dolg, J. Chem. Phys. 113, 2563 (2000).

ECP parameters for Pb [SD(60,MDF)] have been obtained from:
  pseudopotential library of the Stuttgart/Cologne group
  http://www.theochem.uni-stuttgart.de/pseudopotentials/

cite the ECP basis sets for Pb [DEF2-TZVP] as follows:
  F. Weigend, R. Ahlrichs; Phys. Chem. Chem. Phys. 7, 3297(2005).

ECP basis sets for Pb [DEF2-TZVP] have been obtained from:
  Turbomole basis set library
  ftp://ftp.chemie.uni-karlsruhe.de/pub/basen/


WARNING: Gradients are needed
  ===> : At least TightSCF should be used for SCF convergence


INFO   : the flag for use of LIBINT has been found!

================================================================================
                                       INPUT FILE
================================================================================
NAME = ts_5_high.orca
|  1> ! PW6B95 def2-TZVP GCP(DFT/TZ) ECP{def2-TZVP} Grid7 MORead
|  2> %pal nprocs 2 end
|  3> %method
|  4>  RunTyp Gradient
|  5>  end
|  6> %maxcore 2000
|  7> %moinp "previous.gbw"
|  8> *xyz -1 1
|  9> Pb 0.296160 0.288730 0.340033 
| 10> Cl 2.919739 0.429641 0.132078 
| 11> Cl 0.042340 2.889007 0.000916 
| 12> Cl 0.388905 0.553465 2.960344 
| 13> *
| 14> 
| 15>                          ****END OF INPUT****
================================================================================

                     *******************************
                     * Energy+Gradient Calculation *
                     *******************************

---------------------------------
CARTESIAN COORDINATES (ANGSTROEM)
---------------------------------
  Pb     0.296160    0.288730    0.340033
  Cl     2.919739    0.429641    0.132078
  Cl     0.042340    2.889007    0.000916
  Cl     0.388905    0.553465    2.960344

----------------------------
CARTESIAN COORDINATES (A.U.)
----------------------------
  NO LB      ZA    FRAG    MASS        X           Y           Z
   0 Pb   22.0000*   0   207.200  0.559661291822118  0.545620626647083  0.642569246495645
   1 Cl   17.0000    0    35.453          5.517507092529101          0.811903825904061          0.249591248316051
   2 Cl   17.0000    0    35.453          0.080011004510226          5.459432028981433          0.001730989138672
   3 Cl   17.0000    0    35.453          0.734923942112644          1.045897274710726          5.594239422196974
* core charge reduced due to ECP

--------------------------------
INTERNAL COORDINATES (ANGSTROEM)
--------------------------------
 Pb     0   0   0   0.000000     0.000     0.000
 Cl     1   0   0   2.635577     0.000     0.000
 Cl     1   2   0   2.634552    91.890     0.000
 Cl     1   2   3   2.635283    92.181   268.079

---------------------------
INTERNAL COORDINATES (A.U.)
---------------------------
 Pb     0   0   0   0.000000     0.000     0.000
 Cl     1   0   0   4.980519     0.000     0.000
 Cl     1   2   0   4.978582    91.890     0.000
 Cl     1   2   3   4.979963    92.181   268.079

---------------------
BASIS SET INFORMATION
---------------------
There are 2 groups of distinct atoms

 Group   1 Type Pb  : 10s9p8d2f contracted to 6s5p3d2f pattern {421111/33111/611/11}
 Group   2 Type Cl  : 14s9p3d1f contracted to 5s5p2d1f pattern {73211/51111/21/1}

Atom   0Pb   basis set group =>   1
Atom   1Cl   basis set group =>   2
Atom   2Cl   basis set group =>   2
Atom   3Cl   basis set group =>   2

-------------------------
ECP PARAMETER INFORMATION
-------------------------

 Group 1, Type Pb ECP SD(60,MDF) (replacing 60 core electrons, lmax=5)

Atom   0Pb   ECP group =>   1




           ************************************************************
           *        Program running with 2 parallel MPI-processes     *
           *              working on a common directory               *
           ************************************************************
------------------------------------------------------------------------------
                           ORCA GTO INTEGRAL CALCULATION
------------------------------------------------------------------------------

                         BASIS SET STATISTICS AND STARTUP INFO

 # of primitive gaussian shells          ...  110
 # of primitive gaussian functions       ...  280
 # of contracted shell                   ...   55
 # of contracted basis functions         ...  161
 Highest angular momentum                ...    3
 Maximum contraction depth               ...    7
 Integral package used                   ... LIBINT
 Integral threshhold            Thresh   ...  1.000e-10
 Primitive cut-off              TCut     ...  1.000e-11


                              INTEGRAL EVALUATION

 One electron integrals    
   ECP integrals                                       ... done
 Pre-screening matrix                    ... done
 Shell pair data                         ... done (   0.001 sec)

           ************************************************************
           *              Shut down parallel processing               *
           ************************************************************


           ************************************************************
           *        Program running with 2 parallel MPI-processes     *
           *              working on a common directory               *
           ************************************************************
-------------------------------------------------------------------------------
                                 ORCA SCF
-------------------------------------------------------------------------------

------------
SCF SETTINGS
------------
Hamiltonian:
 Density Functional     Method          .... DFT(GTOs)
 Exchange Functional    Exchange        .... PW6
 Correlation Functional Correlation     .... B95
 Gradients option       PostSCFGGA      .... off
 Hybrid DFT is turned on
   Fraction HF Exchange ScalHFX         ....  0.280000
   Scaling of DF-GGA-X  ScalDFX         ....  0.720000
   Scaling of DF-GGA-C  ScalDFC         ....  1.000000
   Scaling of DF-LDA-C  ScalLDAC        ....  1.000000
   Perturbative correction              ....  0.000000
   NL short-range parameter             ....  9.000000


General Settings:
 Integral files         IntName         .... ts_5_high.orca
 Hartree-Fock type      HFTyp           .... RHF
 Total Charge           Charge          ....   -1
 Multiplicity           Mult            ....    1
 Number of Electrons    NEL             ....   74
 Basis Dimension        Dim             ....  161
 Nuclear Repulsion      ENuc            ....    346.3625371288 Eh

Convergence Acceleration:
 DIIS                   CNVDIIS         .... on
   Start iteration      DIISMaxIt       ....    12
   Startup error        DIISStart       ....  0.200000
   # of expansion vecs  DIISMaxEq       ....     5
   Bias factor          DIISBfac        ....   1.050
   Max. coefficient     DIISMaxC        ....  10.000
 Newton-Raphson         CNVNR           .... off
 SOSCF                  CNVSOSCF        .... on
   Start iteration      SOSCFMaxIt      ....   150
   Startup grad/error   SOSCFStart      ....  0.003300
 Level Shifting         CNVShift        .... on
   Level shift para.    LevelShift      ....    0.2500
   Turn off err/grad.   ShiftErr        ....    0.0010
 Zerner damping         CNVZerner       .... off
 Static damping         CNVDamp         .... on
   Fraction old density DampFac         ....    0.7000
   Max. Damping (<1)    DampMax         ....    0.9800
   Min. Damping (>=0)   DampMin         ....    0.0000
   Turn off err/grad.   DampErr         ....    0.1000
 Fernandez-Rico         CNVRico         .... off

SCF Procedure:
 Maximum # iterations   MaxIter         ....   125
 SCF integral mode      SCFMode         .... Direct
   Integral package                     .... LIBINT
 Reset frequeny         DirectResetFreq ....    20
 Integral Threshold     Thresh          ....  1.000e-10 Eh
 Primitive CutOff       TCut            ....  1.000e-11 Eh

Convergence Tolerance:
 Convergence Check Mode ConvCheckMode   .... Total+1el-Energy
 Energy Change          TolE            ....  1.000e-06 Eh
 1-El. energy change                    ....  1.000e-03 Eh
 Orbital Gradient       TolG            ....  5.000e-05
 Orbital Rotation angle TolX            ....  5.000e-05
 DIIS Error             TolErr          ....  1.000e-06


Diagonalization of the overlap matrix:
Smallest eigenvalue                        ... 7.802e-03
Time for diagonalization                   ...    0.010 sec
Threshold for overlap eigenvalues          ... 1.000e-08
Number of eigenvalues below threshold      ... 0
Time for construction of square roots      ...    0.144 sec
Total time needed                          ...    0.154 sec

---------------------
INITIAL GUESS: MOREAD
---------------------
Guess MOs are being read from file: previous.gbw
Input Geometry matches current geometry (good)
Input basis set matches current basis set (good)
MOs were renormalized
MOs were reorthogonalized (Schmidt)
                      ------------------
                      INITIAL GUESS DONE (   0.2 sec)
                      ------------------
-------------------
DFT GRID GENERATION
-------------------

General Integration Accuracy     IntAcc      ...  5.670
Radial Grid Type                 RadialGrid  ... Gauss-Chebyshev
Angular Grid (max. acc.)         AngularGrid ... Lebedev-770
Angular grid pruning method      GridPruning ... 3 (G Style)
Weight generation scheme         WeightScheme... Becke
Basis function cutoff            BFCut       ...    1.0000e-10
Integration weight cutoff        WCut        ...    1.0000e-14
Grids for H and He will be reduced by one unit

# of grid points (after initial pruning)     ... 122646 (   0.1 sec)
# of grid points (after weights+screening)   ... 121524 (   0.1 sec)
nearest neighbour list constructed           ...    0.0 sec
Grid point re-assignment to atoms done       ...    0.0 sec
Grid point division into batches done        ...   15.6 sec
Reduced shell lists constructed in   18.4 sec

Total number of grid points                  ...   121524
Total number of batches                      ...     1900
Average number of points per batch           ...       63
Average number of grid points per atom       ...    30381
Average number of shells per batch           ...    28.56 (51.92%)
Average number of basis functions per batch  ...    93.51 (58.08%)
Average number of large shells per batch     ...    22.42 (78.52%)
Average number of large basis fcns per batch ...    72.53 (77.57%)
Maximum spatial batch extension              ...  25.15, 26.27, 26.07 au
Average spatial batch extension              ...   1.10,  1.12,  1.16 au

Time for grid setup =   22.837 sec

--------------
SCF ITERATIONS
--------------
ITER       Energy         Delta-E        Max-DP      RMS-DP      [F,P]     Damp
               ***  Starting incremental Fock matrix formation  ***
  0  -1574.9258748205   0.000000000000 0.03748317  0.00043006  0.0447163 0.7000
                      *** Initiating the SOSCF procedure ***
                      *** Re-Reading the Fockian *** 
                      *** Removing any level shift *** 
ITER      Energy       Delta-E        Grad      Rot      Max-DP    RMS-DP
  1  -1574.92723703  -0.0013622107  0.002910  0.002910  0.091395  0.001147
               *** Restarting incremental Fock matrix formation ***
  2  -1574.93033510  -0.0030980677  0.002486  0.003346  0.015744  0.000276
  3  -1574.93042742  -0.0000923232  0.001873  0.002260  0.011464  0.000137
  4  -1574.93048037  -0.0000529507  0.000496  0.000757  0.001256  0.000034
  5  -1574.93048231  -0.0000019418  0.000284  0.000273  0.001247  0.000023
  6  -1574.93048509  -0.0000027734  0.000036  0.000094  0.000093  0.000003
  7  -1574.93048510  -0.0000000082  0.000025  0.000029  0.000046  0.000002
                 **** Energy Check signals convergence ****
              ***Rediagonalizing the Fockian in SOSCF/NRSCF***

               *****************************************************
               *                     SUCCESS                       *
               *           SCF CONVERGED AFTER   8 CYCLES          *
               *****************************************************


----------------
TOTAL SCF ENERGY
----------------

Total Energy       :        -1574.93048512 Eh          -42856.03726 eV

Components:
Nuclear Repulsion  :          346.36253713 Eh            9425.00379 eV
Electronic Energy  :        -1921.29302225 Eh          -52281.04105 eV

One Electron Energy:        -2950.02459122 Eh          -80274.25019 eV
Two Electron Energy:         1028.73156898 Eh           27993.20914 eV

Virial components:
Potential Energy   :        -3017.27467822 Eh          -82104.21809 eV
Kinetic Energy     :         1442.34419310 Eh           39248.18083 eV
Virial Ratio       :            2.09192417


DFT components:
N(Alpha)           :       36.999999646656 electrons
N(Beta)            :       36.999999646656 electrons
N(Total)           :       73.999999293311 electrons
E(X)               :      -71.629314320011 Eh       
E(C)               :       -3.261007098986 Eh       
E(XC)              :      -74.890321418997 Eh       

---------------
SCF CONVERGENCE
---------------

  Last Energy change         ...   -2.1857e-08  Tolerance :   1.0000e-06
  Last MAX-Density change    ...    1.2244e-05  Tolerance :   1.0000e-05
  Last RMS-Density change    ...    3.0590e-07  Tolerance :   1.0000e-06
  Last Orbital Gradient      ...    7.1501e-06  Tolerance :   5.0000e-05
  Last Orbital Rotation      ...    3.3541e-06  Tolerance :   5.0000e-05

             **** THE GBW FILE WAS UPDATED (ts_5_high.orca.gbw) ****
             **** DENSITY FILE WAS UPDATED (ts_5_high.orca.scfp.tmp) ****
             **** ENERGY FILE WAS UPDATED (ts_5_high.orca.en.tmp) ****
----------------
ORBITAL ENERGIES
----------------

  NO   OCC          E(Eh)            E(eV) 
   0   2.0000    -101.711888     -2767.7212 
   1   2.0000    -101.711886     -2767.7211 
   2   2.0000    -101.711822     -2767.7194 
   3   2.0000      -9.351909      -254.4784 
   4   2.0000      -9.351907      -254.4783 
   5   2.0000      -9.351848      -254.4767 
   6   2.0000      -7.081787      -192.7052 
   7   2.0000      -7.081785      -192.7052 
   8   2.0000      -7.081729      -192.7036 
   9   2.0000      -7.078785      -192.6235 
  10   2.0000      -7.078784      -192.6235 
  11   2.0000      -7.078766      -192.6230 
  12   2.0000      -7.078765      -192.6230 
  13   2.0000      -7.078720      -192.6218 
  14   2.0000      -7.078706      -192.6214 
  15   2.0000      -5.423982      -147.5940 
  16   2.0000      -3.247710       -88.3747 
  17   2.0000      -3.247688       -88.3741 
  18   2.0000      -3.246172       -88.3328 
  19   2.0000      -0.742188       -20.1960 
  20   2.0000      -0.742181       -20.1958 
  21   2.0000      -0.737231       -20.0611 
  22   2.0000      -0.737199       -20.0602 
  23   2.0000      -0.735937       -20.0259 
  24   2.0000      -0.629276       -17.1235 
  25   2.0000      -0.612079       -16.6555 
  26   2.0000      -0.611989       -16.6531 
  27   2.0000      -0.361227        -9.8295 
  28   2.0000      -0.179727        -4.8906 
  29   2.0000      -0.179575        -4.8865 
  30   2.0000      -0.165726        -4.5096 
  31   2.0000      -0.148255        -4.0342 
  32   2.0000      -0.148147        -4.0313 
  33   2.0000      -0.134497        -3.6599 
  34   2.0000      -0.134342        -3.6556 
  35   2.0000      -0.133108        -3.6220 
  36   2.0000      -0.125290        -3.4093 
  37   0.0000       0.107930         2.9369 
  38   0.0000       0.108242         2.9454 
  39   0.0000       0.112410         3.0588 
  40   0.0000       0.230801         6.2804 
  41   0.0000       0.236230         6.4281 
  42   0.0000       0.236293         6.4299 
  43   0.0000       0.353324         9.6144 
  44   0.0000       0.353433         9.6174 
  45   0.0000       0.356412         9.6985 
  46   0.0000       0.379362        10.3230 
  47   0.0000       0.381168        10.3721 
  48   0.0000       0.381220        10.3735 
  49   0.0000       0.488337        13.2883 
  50   0.0000       0.512849        13.9553 
  51   0.0000       0.513036        13.9604 
  52   0.0000       0.534390        14.5415 
  53   0.0000       0.534499        14.5445 
  54   0.0000       0.536269        14.5926 
  55   0.0000       0.565752        15.3949 
  56   0.0000       0.571901        15.5622 
  57   0.0000       0.572141        15.5687 
  58   0.0000       0.596335        16.2271 
  59   0.0000       0.604488        16.4490 
  60   0.0000       0.604797        16.4574 
  61   0.0000       0.614513        16.7218 
  62   0.0000       0.642094        17.4723 
  63   0.0000       0.642240        17.4762 
  64   0.0000       0.660956        17.9855 
  65   0.0000       0.661253        17.9936 
  66   0.0000       0.681714        18.5504 
  67   0.0000       0.685389        18.6504 
  68   0.0000       0.685422        18.6513 
  69   0.0000       0.700694        19.0669 
  70   0.0000       0.731587        19.9075 
  71   0.0000       0.732658        19.9366 
  72   0.0000       0.733550        19.9609 
  73   0.0000       0.832486        22.6531 
  74   0.0000       0.906476        24.6665 
  75   0.0000       0.917901        24.9774 
  76   0.0000       0.918051        24.9814 
  77   0.0000       0.920363        25.0444 
  78   0.0000       0.940542        25.5934 
  79   0.0000       0.940595        25.5949 
  80   0.0000       0.962703        26.1965 
  81   0.0000       0.963188        26.2097 
  82   0.0000       0.973013        26.4770 
  83   0.0000       1.128585        30.7104 
  84   0.0000       1.128688        30.7132 
  85   0.0000       1.150254        31.3000 
  86   0.0000       1.171892        31.8888 
  87   0.0000       1.172645        31.9093 
  88   0.0000       1.327641        36.1269 
  89   0.0000       1.335417        36.3385 
  90   0.0000       1.335851        36.3503 
  91   0.0000       1.933766        52.6204 
  92   0.0000       1.941739        52.8374 
  93   0.0000       1.942031        52.8454 
  94   0.0000       1.945501        52.9398 
  95   0.0000       1.945962        52.9523 
  96   0.0000       1.946199        52.9588 
  97   0.0000       1.978975        53.8506 
  98   0.0000       1.993620        54.2492 
  99   0.0000       1.994181        54.2644 
 100   0.0000       2.037355        55.4393 
 101   0.0000       2.037641        55.4470 
 102   0.0000       2.055344        55.9288 
 103   0.0000       2.106186        57.3122 
 104   0.0000       2.113549        57.5126 
 105   0.0000       2.113778        57.5188 
 106   0.0000       2.160018        58.7771 
 107   0.0000       2.168820        59.0166 
 108   0.0000       2.170675        59.0671 
 109   0.0000       2.170795        59.0703 
 110   0.0000       2.209814        60.1321 
 111   0.0000       2.211469        60.1771 
 112   0.0000       2.212145        60.1955 
 113   0.0000       2.272252        61.8311 
 114   0.0000       2.277403        61.9713 
 115   0.0000       2.277424        61.9718 
 116   0.0000       2.280620        62.0588 
 117   0.0000       2.280632        62.0592 
 118   0.0000       2.284555        62.1659 
 119   0.0000       2.286642        62.2227 
 120   0.0000       2.286684        62.2238 
 121   0.0000       2.287027        62.2332 
 122   0.0000       2.287041        62.2335 
 123   0.0000       2.287105        62.2353 
 124   0.0000       2.287863        62.2559 
 125   0.0000       2.361272        64.2535 
 126   0.0000       2.396611        65.2151 
 127   0.0000       2.397307        65.2340 
 128   0.0000       2.405406        65.4544 
 129   0.0000       2.405621        65.4603 
 130   0.0000       2.409599        65.5685 
 131   0.0000       2.422625        65.9230 
 132   0.0000       2.422698        65.9250 
 133   0.0000       2.457626        66.8754 
 134   0.0000       2.457954        66.8843 
 135   0.0000       2.478509        67.4437 
 136   0.0000       2.490907        67.7810 
 137   0.0000       2.490919        67.7813 
 138   0.0000       2.572774        70.0087 
 139   0.0000       2.575068        70.0712 
 140   0.0000       2.608238        70.9738 
 141   0.0000       2.857740        77.7631 
 142   0.0000       2.859373        77.8075 
 143   0.0000       3.156135        85.8828 
 144   0.0000      10.900897       296.6285 
 145   0.0000      10.901089       296.6337 
 146   0.0000      10.904988       296.7398 
 147   0.0000      10.930360       297.4302 
 148   0.0000      10.939662       297.6833 
 149   0.0000      10.939882       297.6893 
 150   0.0000      10.975251       298.6518 
 151   0.0000      11.026073       300.0347 
 152   0.0000      11.026266       300.0400 
 153   0.0000      24.907836       677.7767 
 154   0.0000      24.908227       677.7873 
 155   0.0000      25.063676       682.0173 
 156   0.0000      35.418626       963.7898 
 157   0.0000      35.805074       974.3056 
 158   0.0000      35.808254       974.3921 
 159   0.0000      35.808859       974.4086 
 160   0.0000     124.868786      3397.8524 

                    ********************************
                    * MULLIKEN POPULATION ANALYSIS *
                    ********************************

-----------------------
MULLIKEN ATOMIC CHARGES
-----------------------
   0 Pb:    0.717317
   1 Cl:   -0.572456
   2 Cl:   -0.572282
   3 Cl:   -0.572580
Sum of atomic charges:   -1.0000000

--------------------------------
MULLIKEN REDUCED ORBITAL CHARGES
--------------------------------
  0 Pbs       :     3.904729  s :     3.904729
      pz      :     2.380571  p :     7.190159
      px      :     2.393751
      py      :     2.415838
      dz2     :     2.023521  d :    10.136254
      dxz     :     2.031815
      dyz     :     2.030343
      dx2y2   :     2.019826
      dxy     :     2.030749
      f0      :     0.011193  f :     0.051540
      f+1     :     0.007880
      f-1     :     0.008120
      f+2     :     0.005641
      f-2     :     0.000524
      f+3     :     0.008986
      f-3     :     0.009198
  1 Cls       :     5.954411  s :     5.954411
      pz      :     3.943079  p :    11.605429
      px      :     3.719655
      py      :     3.942695
      dz2     :     0.002116  d :     0.011965
      dxz     :     0.001902
      dyz     :     0.000098
      dx2y2   :     0.005781
      dxy     :     0.002069
      f0      :     0.000052  f :     0.000651
      f+1     :     0.000142
      f-1     :     0.000009
      f+2     :     0.000084
      f-2     :     0.000006
      f+3     :     0.000232
      f-3     :     0.000126
  2 Cls       :     5.954404  s :     5.954404
      pz      :     3.941582  p :    11.605224
      px      :     3.943042
      py      :     3.720600
      dz2     :     0.002088  d :     0.012001
      dxz     :     0.000071
      dyz     :     0.002062
      dx2y2   :     0.005791
      dxy     :     0.001987
      f0      :     0.000055  f :     0.000653
      f+1     :     0.000009
      f-1     :     0.000137
      f+2     :     0.000092
      f-2     :     0.000009
      f+3     :     0.000129
      f-3     :     0.000223
  3 Cls       :     5.954430  s :     5.954430
      pz      :     3.722039  p :    11.605522
      px      :     3.943036
      py      :     3.940447
      dz2     :     0.007438  d :     0.011976
      dxz     :     0.001913
      dyz     :     0.002197
      dx2y2   :     0.000287
      dxy     :     0.000141
      f0      :     0.000356  f :     0.000651
      f+1     :     0.000129
      f-1     :     0.000144
      f+2     :     0.000013
      f-2     :     0.000008
      f+3     :     0.000001
      f-3     :     0.000000


                     *******************************
                     * LOEWDIN POPULATION ANALYSIS *
                     *******************************

----------------------
LOEWDIN ATOMIC CHARGES
----------------------
   0 Pb:   -0.070640
   1 Cl:   -0.310057
   2 Cl:   -0.309381
   3 Cl:   -0.309922

-------------------------------
LOEWDIN REDUCED ORBITAL CHARGES
-------------------------------
  0 Pbs       :     3.779512  s :     3.779512
      pz      :     2.517086  p :     7.610470
      px      :     2.533036
      py      :     2.560348
      dz2     :     2.149920  d :    10.534719
      dxz     :     2.079878
      dyz     :     2.081099
      dx2y2   :     2.144686
      dxy     :     2.079136
      f0      :     0.035666  f :     0.145939
      f+1     :     0.021003
      f-1     :     0.021726
      f+2     :     0.013023
      f-2     :     0.001127
      f+3     :     0.027012
      f-3     :     0.026381
  1 Cls       :     5.796245  s :     5.796245
      pz      :     3.905810  p :    11.492471
      px      :     3.680220
      py      :     3.906441
      dz2     :     0.004261  d :     0.020221
      dxz     :     0.001754
      dyz     :     0.000078
      dx2y2   :     0.011834
      dxy     :     0.002294
      f0      :     0.000047  f :     0.001120
      f+1     :     0.000323
      f-1     :     0.000012
      f+2     :     0.000079
      f-2     :     0.000004
      f+3     :     0.000515
      f-3     :     0.000141
  2 Cls       :     5.795939  s :     5.795939
      pz      :     3.903892  p :    11.492047
      px      :     3.905549
      py      :     3.682606
      dz2     :     0.004186  d :     0.020270
      dxz     :     0.000069
      dyz     :     0.002021
      dx2y2   :     0.012144
      dxy     :     0.001849
      f0      :     0.000058  f :     0.001124
      f+1     :     0.000010
      f-1     :     0.000307
      f+2     :     0.000098
      f-2     :     0.000007
      f+3     :     0.000121
      f-3     :     0.000523
  3 Cls       :     5.796157  s :     5.796157
      pz      :     3.681468  p :    11.492408
      px      :     3.906475
      py      :     3.904466
      dz2     :     0.015124  d :     0.020236
      dxz     :     0.001972
      dyz     :     0.002745
      dx2y2   :     0.000284
      dxy     :     0.000110
      f0      :     0.000778  f :     0.001121
      f+1     :     0.000129
      f-1     :     0.000192
      f+2     :     0.000014
      f-2     :     0.000007
      f+3     :     0.000001
      f-3     :     0.000001


                      *****************************
                      * MAYER POPULATION ANALYSIS *
                      *****************************

  NA   - Mulliken gross atomic population
  ZA   - Total nuclear charge
  QA   - Mulliken gross atomic charge
  VA   - Mayer's total valence
  BVA  - Mayer's bonded valence
  FA   - Mayer's free valence

  ATOM       NA         ZA         QA         VA         BVA        FA
  0 Pb    21.2827    22.0000     0.7173     2.1532     2.1532    -0.0000
  1 Cl    17.5725    17.0000    -0.5725     0.7398     0.7398    -0.0000
  2 Cl    17.5723    17.0000    -0.5723     0.7400     0.7400    -0.0000
  3 Cl    17.5726    17.0000    -0.5726     0.7396     0.7396     0.0000

  Mayer bond orders larger than 0.1
B(  0-Pb,  1-Cl) :   0.7177 B(  0-Pb,  2-Cl) :   0.7180 B(  0-Pb,  3-Cl) :   0.7176 


-------
TIMINGS
-------

Total SCF time: 0 days 0 hours 5 min 35 sec 

Total time                  ....     335.630 sec
Sum of individual times     ....     333.033 sec  ( 99.2%)

Fock matrix formation       ....     306.962 sec  ( 91.5%)
  Coulomb formation         ....     211.951 sec  ( 69.0% of F)
  XC integration            ....      93.596 sec  ( 30.5% of F)
    Basis function eval.    ....      16.273 sec  ( 17.4% of XC)
    Density eval.           ....      31.678 sec  ( 33.8% of XC)
    XC-Functional eval.     ....       9.322 sec  ( 10.0% of XC)
    XC-Potential eval.      ....      29.478 sec  ( 31.5% of XC)
Diagonalization             ....       0.547 sec  (  0.2%)
Density matrix formation    ....       1.441 sec  (  0.4%)
Population analysis         ....       0.173 sec  (  0.1%)
Initial guess               ....       0.211 sec  (  0.1%)
Orbital Transformation      ....       0.000 sec  (  0.0%)
Orbital Orthonormalization  ....       0.031 sec  (  0.0%)
DIIS solution               ....       0.003 sec  (  0.0%)
SOSCF solution              ....       0.858 sec  (  0.3%)
Grid generation             ....      22.837 sec  (  6.8%)
           ************************************************************
           *              Shut down parallel processing               *
           ************************************************************
 ** NOTE ** -> element pb will be treated as ge
Egcp:       0.0016413169 a.u.
NOTIFICATION: Different basis set in ORCA and otool_gcp:
ORCA: 161  gCP: 159 
If you are NOT using ECPs, check your basis set inputs!
------------------   -----------------
gCP correction             0.001641317
------------------   -----------------

-------------------------   --------------------
FINAL SINGLE POINT ENERGY     -1574.928843801392
-------------------------   --------------------



           ************************************************************
           *        Program running with 2 parallel MPI-processes     *
           *              working on a common directory               *
           ************************************************************
------------------------------------------------------------------------------
                         ORCA SCF GRADIENT CALCULATION
------------------------------------------------------------------------------

Gradient of the Kohn-Sham DFT energy:
Kohn-Sham wavefunction type      ... RKS
Hartree-Fock exchange scaling    ...    0.280
Number of operators              ...    1
Number of atoms                  ...    4
Basis set dimensions             ...  161
Integral neglect threshold       ... 1.0e-10
Integral primitive cutoff        ... 1.0e-11

Nuclear repulsion gradient       ... done
One Electron Gradient            
  ECP gradient                   ... done
Pre-screening matrix             ... done
Starting the two electron gradient:
Two electron gradient done
Exchange-correlation gradient    ... done
gCP correction                   ... done

------------------
CARTESIAN GRADIENT
------------------

   1   Pb  :   -0.015313130   -0.018706738   -0.012861331
   2   Cl  :    0.009233402    0.004480771    0.002351409
   3   Cl  :    0.002923247    0.009825154    0.002152424
   4   Cl  :    0.003554877    0.004770202    0.008669911

Norm of the cartesian gradient     ...    0.032878279
RMS gradient                       ...    0.009491142
MAX gradient                       ...    0.018706738

-------
TIMINGS
-------

Total SCF gradient time            ...      168.054 sec

One electron gradient       ....       6.086 sec  (  3.6%)
Prescreening matrices       ....       2.979 sec  (  1.8%)
Two electron gradient       ....     108.930 sec  ( 64.8%)
XC gradient                 ....      29.331 sec  ( 17.5%)
           ************************************************************
           *              Shut down parallel processing               *
           ************************************************************

                            ***************************************
                            *     ORCA property calculations      *
                            ***************************************

                                    ---------------------
                                    Active property flags
                                    ---------------------
   (+) Dipole Moment


------------------------------------------------------------------------------
                       ORCA ELECTRIC PROPERTIES CALCULATION
------------------------------------------------------------------------------

Dipole Moment Calculation                       ... on
Quadrupole Moment Calculation                   ... off
Polarizability Calculation                      ... off
GBWName                                         ... ts_5_high.orca.gbw
Electron density file                           ... ts_5_high.orca.scfp.tmp

-------------
DIPOLE MOMENT
-------------
                                X             Y             Z
Electronic contribution:    -42.31732     -51.65347     -35.62767
Nuclear contribution   :     40.69984      49.68138      34.26614
                        -----------------------------------------
Total Dipole Moment    :     -1.61748      -1.97209      -1.36153
                        -----------------------------------------
Magnitude (a.u.)       :      2.89122
Magnitude (Debye)      :      7.34888


Timings for individual modules:

Sum of individual times         ...      516.132 sec (=   8.602 min)
GTO integral calculation        ...        2.836 sec (=   0.047 min)   0.5 %
SCF iterations                  ...      341.275 sec (=   5.688 min)  66.1 %
SCF Gradient evaluation         ...      172.021 sec (=   2.867 min)  33.3 %
                             ****ORCA TERMINATED NORMALLY****
TOTAL RUN TIME: 0 days 0 hours 8 minutes 43 seconds 511 msec
