
                                 *****************
                                 * O   R   C   A *
                                 *****************

           --- An Ab Initio, DFT and Semiempirical electronic structure package ---

                  #######################################################
                  #                        -***-                        #
                  #  Department of molecular theory and spectroscopy    #
                  #              Directorship: Frank Neese              #
                  # Max Planck Institute for Chemical Energy Conversion #
                  #                  D-45470 Muelheim/Ruhr              #
                  #                       Germany                       #
                  #                                                     #
                  #                  All rights reserved                #
                  #                        -***-                        #
                  #######################################################


                         Program Version 3.0.3 - RELEASE   -


 With contributions from (in alphabetic order):
   Ute Becker             : Parallelization
   Dmytro Bykov           : SCF Hessian
   Dmitry Ganyushin       : Spin-Orbit,Spin-Spin,Magnetic field MRCI
   Andreas Hansen         : Spin unrestricted coupled pair/coupled cluster methods
   Dimitrios Liakos       : Extrapolation schemes; parallel MDCI
   Robert Izsak           : Overlap fitted RIJCOSX, COSX-SCS-MP3
   Christian Kollmar      : KDIIS, OOCD, Brueckner-CCSD(T), CCSD density
   Simone Kossmann        : Meta GGA functionals, TD-DFT gradient, OOMP2, MP2 Hessian
   Taras Petrenko         : DFT Hessian,TD-DFT gradient, ASA and ECA modules, normal mode analysis, Resonance Raman, ABS, FL, XAS/XES, NRVS
   Christoph Reimann      : Effective Core Potentials
   Michael Roemelt        : Restricted open shell CIS
   Christoph Riplinger    : Improved optimizer, TS searches, QM/MM, DLPNO-CCSD
   Barbara Sandhoefer     : DKH picture change effects
   Igor Schapiro          : Molecular dynamics
   Kantharuban Sivalingam : CASSCF convergence, NEVPT2
   Boris Wezisla          : Elementary symmetry handling
   Frank Wennmohs         : Technical directorship


 We gratefully acknowledge several colleagues who have allowed us to
 interface, adapt or use parts of their codes:
   Stefan Grimme, W. Hujo, H. Kruse, T. Risthaus : VdW corrections, initial TS optimization,
                                                   DFT functionals, gCP
   Ed Valeev                                     : LibInt (2-el integral package), F12 methods
   Garnet Chan, S. Sharma, R. Olivares           : DMRG
   Ulf Ekstrom                                   : XCFun DFT Library
   Mihaly Kallay                                 : mrcc  (arbitrary order and MRCC methods)
   Andreas Klamt, Michael Diedenhofen            : otool_cosmo (COSMO solvation model)
   Frank Weinhold                                : gennbo (NPA and NBO analysis)
   Christopher J. Cramer and Donald G. Truhlar   : smd solvation model


 Your calculation uses the libint2 library for the computation of 2-el integrals
 For citations please refer to: http://libint.valeyev.net

 This ORCA versions uses:
   CBLAS   interface :  Fast vector & matrix operations
   LAPACKE interface :  Fast linear algebra routines
   SCALAPACK package :  Parallel linear algebra routines


Your calculation utilizes the basis: Ahlrichs-TZV
Cite in your paper:
H - Kr: A. Schaefer, H. Horn and R. Ahlrichs, J. Chem. Phys. 97, 2571 (1992).

The def2-TZV basis will be loaded
Cite in your paper:
 	F. Weigend, R. Ahlrichs, Phys. Chem. Chem. Phys. 2005, 7, 3297.

Your calculation utilizes the atom-pairwise dispersion correction
with the Becke-Johnson damping scheme (D3BJ)
Cite in your paper:
S.Grimme, S.Ehrlich, L.Goerigk, J Comput Chem, (2011), 32, 1456–1465 
S.Grimme, J.Antony, S.Ehrlich and H.Krieg, J.Chem.Phys., 132, (2010), 154104 
   

================================================================================
                                        WARNINGS
                       Please study these warnings very carefully!
================================================================================

WARNING: The RI method has been chosen with no auxiliary basis (AUX or GTOAUX in BASIS block)
        Standard TZV/J expansion basis used (GTOAUX=TZV_J)

Now building the actual basis set
cite the ECPs for Pb [SD(60,MDF)] as follows:
  B. Metz, H. Stoll, M. Dolg, J. Chem. Phys. 113, 2563 (2000).

ECP parameters for Pb [SD(60,MDF)] have been obtained from:
  pseudopotential library of the Stuttgart/Cologne group
  http://www.theochem.uni-stuttgart.de/pseudopotentials/

cite the ECP basis sets for Pb [DEF2-TZVP] as follows:
  F. Weigend, R. Ahlrichs; Phys. Chem. Chem. Phys. 7, 3297(2005).

ECP basis sets for Pb [DEF2-TZVP] have been obtained from:
  Turbomole basis set library
  ftp://ftp.chemie.uni-karlsruhe.de/pub/basen/



INFO   : the flag for use of LIBINT has been found!

================================================================================
                                       INPUT FILE
================================================================================
NAME = PbCl6NH3CH3-2_mp2_sp_9.orca
|  1> ! RIJCOSX RI-B2PLYP D3BJ def2-TZVP ECP{def2-TZVP} TIGHTSCF Grid5 FinalGrid6 MORead
|  2> %method
|  3>  RunTyp Gradient
|  4>  end
|  5> %maxcore 1000
|  6> %moinp "previous.gbw"
|  7> *xyz -2 1
|  8> C 2.821971 3.493173 2.716929 
|  9> N 2.031893 2.485380 2.005967 
| 10> H 3.493737 3.003675 3.431461 
| 11> H 2.156449 4.174155 3.259759 
| 12> H 3.419280 4.070497 2.001994 
| 13> H 1.424368 1.881241 2.639320 
| 14> H 2.617127 1.787701 1.451958 
| 15> H 1.353302 2.890520 1.291746 
| 16> Pb 0.089422 -0.049802 0.193454 
| 17> Cl 3.060917 0.263764 0.239589 
| 18> Cl -0.097467 3.026544 -0.098405 
| 19> Cl 0.221913 0.592837 3.335561 
| 20> Cl -2.930796 -0.224378 0.203325 
| 21> Cl 0.010709 -0.484707 -2.805181 
| 22> Cl 0.250110 -3.169604 0.538106 
| 23> N -1.884966 -2.527607 -1.578982 
| 24> C -2.664881 -3.549172 -2.281400 
| 25> H -2.474954 -1.829497 -1.031708 
| 26> H -1.279571 -1.925402 -2.215561 
| 27> H -3.259633 -4.123288 -1.561779 
| 28> H -1.991792 -4.230944 -2.813775 
| 29> H -3.338231 -3.073756 -3.003955 
| 30> H -1.204879 -2.923566 -0.859634 
| 31> *
| 32> 
| 33>                          ****END OF INPUT****
================================================================================

                     *******************************
                     * Energy+Gradient Calculation *
                     *******************************

---------------------------------
CARTESIAN COORDINATES (ANGSTROEM)
---------------------------------
  C      2.821971    3.493173    2.716929
  N      2.031893    2.485380    2.005967
  H      3.493737    3.003675    3.431461
  H      2.156449    4.174155    3.259759
  H      3.419280    4.070497    2.001994
  H      1.424368    1.881241    2.639320
  H      2.617127    1.787701    1.451958
  H      1.353302    2.890520    1.291746
  Pb     0.089422   -0.049802    0.193454
  Cl     3.060917    0.263764    0.239589
  Cl    -0.097467    3.026544   -0.098405
  Cl     0.221913    0.592837    3.335561
  Cl    -2.930796   -0.224378    0.203325
  Cl     0.010709   -0.484707   -2.805181
  Cl     0.250110   -3.169604    0.538106
  N     -1.884966   -2.527607   -1.578982
  C     -2.664881   -3.549172   -2.281400
  H     -2.474954   -1.829497   -1.031708
  H     -1.279571   -1.925402   -2.215561
  H     -3.259633   -4.123288   -1.561779
  H     -1.991792   -4.230944   -2.813775
  H     -3.338231   -3.073756   -3.003955
  H     -1.204879   -2.923566   -0.859634

----------------------------
CARTESIAN COORDINATES (A.U.)
----------------------------
  NO LB      ZA    FRAG    MASS        X           Y           Z
   0 C     6.0000    0    12.011          5.332752347867888          6.601140308408101          5.134251735308532
   1 N     7.0000    0    14.007          3.839721303431654          4.696687538725200          3.790728263683611
   2 H     1.0000    0     1.008          6.602206113947632          5.676123145305915          6.484521529231552
   3 H     1.0000    0     1.008          4.075098031768349          7.888009790538062          6.160051772585005
   4 H     1.0000    0     1.008          6.461502775194258          7.692124558948052          3.783220381753542
   5 H     1.0000    0     1.008          2.691665433921146          3.555030281904149          4.987591979781038
   6 H     1.0000    0     1.008          4.945653287690924          3.378265299337155          2.743802977956033
   7 H     1.0000    0     1.008          2.557370156487898          5.462291184622056          2.441046174588241
   8 Pb   22.0000*   0   207.200  0.168983090347506  -0.094112140921546  0.365575079511602
   9 Cl   17.0000    0    35.453          5.784294848663835          0.498441723987605          0.452757594700059
  10 Cl   17.0000    0    35.453         -0.184185937094903          5.719339292262561         -0.185958500208521
  11 Cl   17.0000    0    35.453          0.419354795556867          1.120299572055473          6.303296792988505
  12 Cl   17.0000    0    35.453         -5.538401794391868         -0.424012970476983          0.384228566179538
  13 Cl   17.0000    0    35.453          0.020237077168163         -0.915963485194568         -5.301023846079351
  14 Cl   17.0000    0    35.453          0.472639403355044         -5.989683512981335          1.016872971019829
  15 N     7.0000    0    14.007         -3.562069511753006         -4.776485004182294         -2.983843550391246
  16 C     6.0000    0    12.011         -5.035895269490199         -6.706963082181557         -4.311221201927943
  17 H     1.0000    0     1.008         -4.676985254052937         -3.457248292830528         -1.949645570175627
  18 H     1.0000    0     1.008         -2.418038758907750         -3.638482477704246         -4.186803522996702
  19 H     1.0000    0     1.008         -6.159813667092132         -7.791885091283890         -2.951334591709398
  20 H     1.0000    0     1.008         -3.763941395735278         -7.995325447957316         -5.317264152474270
  21 H     1.0000    0     1.008         -6.308342361766074         -5.808557042497251         -5.676652268623413
  22 H     1.0000    0     1.008         -2.276891334512904         -5.524739074443619         -1.624472835407261
* core charge reduced due to ECP

--------------------------------
INTERNAL COORDINATES (ANGSTROEM)
--------------------------------
 C      0   0   0   0.000000     0.000     0.000
 N      1   0   0   1.464697     0.000     0.000
 H      1   2   0   1.096099   109.861     0.000
 H      1   2   3   1.096048   109.899   239.985
 H      1   2   3   1.095999   109.864   119.972
 H      2   1   3   1.065461   114.153    59.908
 H      2   1   3   1.065918   113.984   299.878
 H      2   1   3   1.065240   114.041   179.989
 Pb     7   2   1   3.368908    98.002   180.296
 Cl     7   2   1   1.997291   159.537   183.140
 Cl     8   2   1   2.013890   161.336   184.846
 Cl     6   2   1   1.894897   164.969   180.915
 Cl     9   7   2   3.025275   141.197     0.184
 Cl     9   7   2   3.031031   117.860   127.157
 Cl     9   7   2   3.142892   117.522   230.680
 N     14   9   7   3.044764    73.383   164.486
 C     16  14   9   1.464668   127.327   181.368
 H     16  14   9   1.065341    96.431    54.287
 H     16  14   9   1.065076    13.105   183.427
 H     17  16  14   1.095990   109.842   180.594
 H     17  16  14   1.096031   109.864    60.643
 H     17  16  14   1.096132   109.921   300.605
 H     16  14   9   1.066191    97.109   308.765

---------------------------
INTERNAL COORDINATES (A.U.)
---------------------------
 C      0   0   0   0.000000     0.000     0.000
 N      1   0   0   2.767876     0.000     0.000
 H      1   2   0   2.071328   109.861     0.000
 H      1   2   3   2.071230   109.899   239.985
 H      1   2   3   2.071137   109.864   119.972
 H      2   1   3   2.013429   114.153    59.908
 H      2   1   3   2.014293   113.984   299.878
 H      2   1   3   2.013011   114.041   179.989
 Pb     7   2   1   6.366314    98.002   180.296
 Cl     7   2   1   3.774333   159.537   183.140
 Cl     8   2   1   3.805701   161.336   184.846
 Cl     6   2   1   3.580836   164.969   180.915
 Cl     9   7   2   5.716942   141.197     0.184
 Cl     9   7   2   5.727819   117.860   127.157
 Cl     9   7   2   5.939205   117.522   230.680
 N     14   9   7   5.753770    73.383   164.486
 C     16  14   9   2.767822   127.327   181.368
 H     16  14   9   2.013203    96.431    54.287
 H     16  14   9   2.012702    13.105   183.427
 H     17  16  14   2.071120   109.842   180.594
 H     17  16  14   2.071199   109.864    60.643
 H     17  16  14   2.071390   109.921   300.605
 H     16  14   9   2.014809    97.109   308.765

---------------------
BASIS SET INFORMATION
---------------------
There are 5 groups of distinct atoms

 Group   1 Type C   : 11s6p2d1f contracted to 5s3p2d1f pattern {62111/411/11/1}
 Group   2 Type N   : 11s6p2d1f contracted to 5s3p2d1f pattern {62111/411/11/1}
 Group   3 Type H   : 5s1p contracted to 3s1p pattern {311/1}
 Group   4 Type Pb  : 10s9p8d2f contracted to 6s5p3d2f pattern {421111/33111/611/11}
 Group   5 Type Cl  : 14s9p3d1f contracted to 5s5p2d1f pattern {73211/51111/21/1}

Atom   0C    basis set group =>   1
Atom   1N    basis set group =>   2
Atom   2H    basis set group =>   3
Atom   3H    basis set group =>   3
Atom   4H    basis set group =>   3
Atom   5H    basis set group =>   3
Atom   6H    basis set group =>   3
Atom   7H    basis set group =>   3
Atom   8Pb   basis set group =>   4
Atom   9Cl   basis set group =>   5
Atom  10Cl   basis set group =>   5
Atom  11Cl   basis set group =>   5
Atom  12Cl   basis set group =>   5
Atom  13Cl   basis set group =>   5
Atom  14Cl   basis set group =>   5
Atom  15N    basis set group =>   2
Atom  16C    basis set group =>   1
Atom  17H    basis set group =>   3
Atom  18H    basis set group =>   3
Atom  19H    basis set group =>   3
Atom  20H    basis set group =>   3
Atom  21H    basis set group =>   3
Atom  22H    basis set group =>   3
-------------------------------
AUXILIARY BASIS SET INFORMATION
-------------------------------
There are 5 groups of distinct atoms

 Group   1 Type C   : 12s5p4d2f1g contracted to 6s4p3d1f1g pattern {711111/2111/211/2/1}
 Group   2 Type N   : 12s5p4d2f1g contracted to 6s4p3d1f1g pattern {711111/2111/211/2/1}
 Group   3 Type H   : 5s2p1d contracted to 3s1p1d pattern {311/2/1}
 Group   4 Type Pb  : 31s12p8d6f3g contracted to 31s12p8d6f3g pattern {1111111111111111111111111111111/111111111111/11111111/111111/111}
 Group   5 Type Cl  : 14s5p5d2f1g contracted to 8s4p3d1f1g pattern {71111111/2111/311/2/1}

Atom   0C    basis set group =>   1
Atom   1N    basis set group =>   2
Atom   2H    basis set group =>   3
Atom   3H    basis set group =>   3
Atom   4H    basis set group =>   3
Atom   5H    basis set group =>   3
Atom   6H    basis set group =>   3
Atom   7H    basis set group =>   3
Atom   8Pb   basis set group =>   4
Atom   9Cl   basis set group =>   5
Atom  10Cl   basis set group =>   5
Atom  11Cl   basis set group =>   5
Atom  12Cl   basis set group =>   5
Atom  13Cl   basis set group =>   5
Atom  14Cl   basis set group =>   5
Atom  15N    basis set group =>   2
Atom  16C    basis set group =>   1
Atom  17H    basis set group =>   3
Atom  18H    basis set group =>   3
Atom  19H    basis set group =>   3
Atom  20H    basis set group =>   3
Atom  21H    basis set group =>   3
Atom  22H    basis set group =>   3

-------------------------
ECP PARAMETER INFORMATION
-------------------------

 Group 1, Type Pb ECP SD(60,MDF) (replacing 60 core electrons, lmax=5)

Atom   8Pb   ECP group =>   1


------------------------------------------------------------------------------
                           ORCA GTO INTEGRAL CALCULATION
                           -- RI-GTO INTEGRALS CHOSEN --
------------------------------------------------------------------------------

                         BASIS SET STATISTICS AND STARTUP INFO

Gaussian basis set:
 # of primitive gaussian shells          ...  343
 # of primitive gaussian functions       ...  749
 # of contracted shells                  ...  186
 # of contracted basis functions         ...  468
 Highest angular momentum                ...    3
 Maximum contraction depth               ...    7
Auxiliary gaussian basis set:
 # of primitive gaussian shells          ...  414
 # of primitive gaussian functions       ... 1110
 # of contracted shells                  ...  282
 # of contracted aux-basis functions     ...  810
 Highest angular momentum                ...    4
 Maximum contraction depth               ...    7
Ratio of auxiliary to basis functions    ...  1.73
Integral package used                  ... LIBINT
 One Electron integrals                  
   ECP integrals                         ... done
 Ordering auxiliary basis shells         ... done
 Integral threshhold             Thresh  ...  2.500e-11
 Primitive cut-off               TCut    ...  2.500e-12
 Pre-screening matrix                    ... done
 Shell pair data                         ... 
 Ordering of the shell pairs             ... done (   0.002 sec) 11353 of 17391 pairs
 Determination of significant pairs      ... done (   0.000 sec)
 Creation of shell pair data             ... done (   0.003 sec)
 Storage of shell pair data              ... done (   0.002 sec)
 Shell pair data done in (   0.007 sec)
 Computing two index integrals           ... done
 Cholesky decomposition of the V-matrix  ... done


Timings:
 Total evaluation time                   ...   1.647 sec (  0.027 min)
 One electron matrix time                ...   0.961 sec (  0.016 min) = 58.3%
 Schwartz matrix evaluation time         ...   0.556 sec (  0.009 min) = 33.7%
 Two index repulsion integral time       ...   0.024 sec (  0.000 min) =  1.5%
 Cholesky decomposition of V             ...   0.069 sec (  0.001 min) =  4.2%
 Three index repulsion integral time     ...   0.000 sec (  0.000 min) =  0.0%

-------------------------------------------------------------------------------
                                 ORCA SCF
-------------------------------------------------------------------------------

------------
SCF SETTINGS
------------
Hamiltonian:
 Density Functional     Method          .... DFT(GTOs)
 Exchange Functional    Exchange        .... B88
   X-Alpha parameter    XAlpha          ....  0.666667
   Becke's b parameter  XBeta           ....  0.004200
 Correlation Functional Correlation     .... LYP
 LDA part of GGA corr.  LDAOpt          .... VWN-3
 Gradients option       PostSCFGGA      .... off
 Hybrid DFT is turned on
   Fraction HF Exchange ScalHFX         ....  0.530000
   Scaling of DF-GGA-X  ScalDFX         ....  0.470000
   Scaling of DF-GGA-C  ScalDFC         ....  0.730000
   Scaling of DF-LDA-C  ScalLDAC        ....  0.730000
   Perturbative correction              ....  0.270000
 RI-approximation to the Coulomb term is turned on
   Number of auxiliary basis functions  .... 810
   RIJ-COSX (HFX calculated with COS-X)).... on


General Settings:
 Integral files         IntName         .... PbCl6NH3CH3-2_mp2_sp_9.orca
 Hartree-Fock type      HFTyp           .... RHF
 Total Charge           Charge          ....   -2
 Multiplicity           Mult            ....    1
 Number of Electrons    NEL             ....  164
 Basis Dimension        Dim             ....  468
 Nuclear Repulsion      ENuc            ....   1559.7174961515 Eh

Convergence Acceleration:
 DIIS                   CNVDIIS         .... on
   Start iteration      DIISMaxIt       ....    12
   Startup error        DIISStart       ....  0.200000
   # of expansion vecs  DIISMaxEq       ....     5
   Bias factor          DIISBfac        ....   1.050
   Max. coefficient     DIISMaxC        ....  10.000
 Newton-Raphson         CNVNR           .... off
 SOSCF                  CNVSOSCF        .... on
   Start iteration      SOSCFMaxIt      ....   150
   Startup grad/error   SOSCFStart      ....  0.003300
 Level Shifting         CNVShift        .... on
   Level shift para.    LevelShift      ....    0.2500
   Turn off err/grad.   ShiftErr        ....    0.0010
 Zerner damping         CNVZerner       .... off
 Static damping         CNVDamp         .... on
   Fraction old density DampFac         ....    0.7000
   Max. Damping (<1)    DampMax         ....    0.9800
   Min. Damping (>=0)   DampMin         ....    0.0000
   Turn off err/grad.   DampErr         ....    0.1000
 Fernandez-Rico         CNVRico         .... off

SCF Procedure:
 Maximum # iterations   MaxIter         ....   125
 SCF integral mode      SCFMode         .... Direct
   Integral package                     .... LIBINT
 Reset frequeny         DirectResetFreq ....    20
 Integral Threshold     Thresh          ....  2.500e-11 Eh
 Primitive CutOff       TCut            ....  2.500e-12 Eh

Convergence Tolerance:
 Convergence Check Mode ConvCheckMode   .... Total+1el-Energy
 Energy Change          TolE            ....  1.000e-08 Eh
 1-El. energy change                    ....  1.000e-05 Eh
 Orbital Gradient       TolG            ....  1.000e-05
 Orbital Rotation angle TolX            ....  1.000e-05
 DIIS Error             TolErr          ....  5.000e-07


Diagonalization of the overlap matrix:
Smallest eigenvalue                        ... 1.084e-03
Time for diagonalization                   ...    0.234 sec
Threshold for overlap eigenvalues          ... 1.000e-08
Number of eigenvalues below threshold      ... 0
Time for construction of square roots      ...    0.049 sec
Total time needed                          ...    0.284 sec

---------------------
INITIAL GUESS: MOREAD
---------------------
Guess MOs are being read from file: previous.gbw
Input geometry compatible with but different from current geometry
Input basis set matches current basis set (good)
MOs were renormalized
MOs were reorthogonalized (Schmidt)
                      ------------------
                      INITIAL GUESS DONE (   2.1 sec)
                      ------------------
-------------------
DFT GRID GENERATION
-------------------

General Integration Accuracy     IntAcc      ...  5.010
Radial Grid Type                 RadialGrid  ... Gauss-Chebyshev
Angular Grid (max. acc.)         AngularGrid ... Lebedev-434
Angular grid pruning method      GridPruning ... 3 (G Style)
Weight generation scheme         WeightScheme... Becke
Basis function cutoff            BFCut       ...    1.0000e-11
Integration weight cutoff        WCut        ...    1.0000e-14
Grids for H and He will be reduced by one unit

# of grid points (after initial pruning)     ... 212974 (   0.1 sec)
# of grid points (after weights+screening)   ... 195993 (   1.8 sec)
nearest neighbour list constructed           ...    0.0 sec
Grid point re-assignment to atoms done       ...    0.1 sec
Grid point division into batches done        ...    2.0 sec
Reduced shell lists constructed in    6.3 sec

Total number of grid points                  ...   195993
Total number of batches                      ...     3077
Average number of points per batch           ...       63
Average number of grid points per atom       ...     8521
Average number of shells per batch           ...    68.26 (36.70%)
Average number of basis functions per batch  ...   172.87 (36.94%)
Average number of large shells per batch     ...    46.20 (67.68%)
Average number of large basis fcns per batch ...   115.72 (66.94%)
Maximum spatial batch extension              ...  29.33, 27.38, 30.33 au
Average spatial batch extension              ...   2.09,  2.06,  2.08 au

Time for grid setup =    8.234 sec

--------------------
COSX GRID GENERATION
--------------------

General Integration Accuracy     IntAcc      ...  3.340
Radial Grid Type                 RadialGrid  ... Gauss-Chebyshev
Angular Grid (max. acc.)         AngularGrid ... Lebedev-50
Angular grid pruning method      GridPruning ... 3 (G Style)
Weight generation scheme         WeightScheme... Becke
Basis function cutoff            BFCut       ...    1.0000e-11
Integration weight cutoff        WCut        ...    1.0000e-14
Grids for H and He will be reduced by one unit

# of grid points (after initial pruning)     ...  11762 (   0.0 sec)
# of grid points (after weights+screening)   ...  10911 (   0.1 sec)
nearest neighbour list constructed           ...    0.0 sec
Grid point re-assignment to atoms done       ...    0.0 sec
Grid point division into batches done        ...    0.0 sec
Reduced shell lists constructed in    0.3 sec

Total number of grid points                  ...    10911
Total number of batches                      ...      183
Average number of points per batch           ...       59
Average number of grid points per atom       ...      474
Average number of shells per batch           ...    86.58 (46.55%)
Average number of basis functions per batch  ...   223.89 (47.84%)
Average number of large shells per batch     ...    59.32 (68.51%)
Average number of large basis fcns per batch ...   151.01 (67.45%)
Maximum spatial batch extension              ...  26.56, 19.13, 22.94 au
Average spatial batch extension              ...   5.50,  5.10,  5.32 au

Overlap Fitting                  UseSFitting ... on
Constructing numerical overlap ... done (      0.2 sec)
Inverting numerical overlap    ... done (      0.0 sec)
Obtaining analytic overlap     ... done (      0.0 sec)
Final contraction and storage  ... done (      0.0 sec)


General Integration Accuracy     IntAcc      ...  3.670
Radial Grid Type                 RadialGrid  ... Gauss-Chebyshev
Angular Grid (max. acc.)         AngularGrid ... Lebedev-50
Angular grid pruning method      GridPruning ... 3 (G Style)
Weight generation scheme         WeightScheme... Becke
Basis function cutoff            BFCut       ...    1.0000e-11
Integration weight cutoff        WCut        ...    1.0000e-14
Grids for H and He will be reduced by one unit

# of grid points (after initial pruning)     ...  14690 (   0.0 sec)
# of grid points (after weights+screening)   ...  13603 (   0.1 sec)
nearest neighbour list constructed           ...    0.0 sec
Grid point re-assignment to atoms done       ...    0.0 sec
Grid point division into batches done        ...    0.0 sec
Reduced shell lists constructed in    0.4 sec

Total number of grid points                  ...    13603
Total number of batches                      ...      222
Average number of points per batch           ...       61
Average number of grid points per atom       ...      591
Average number of shells per batch           ...    84.63 (45.50%)
Average number of basis functions per batch  ...   218.62 (46.71%)
Average number of large shells per batch     ...    57.70 (68.18%)
Average number of large basis fcns per batch ...   145.93 (66.75%)
Maximum spatial batch extension              ...  26.87, 20.12, 23.80 au
Average spatial batch extension              ...   5.08,  4.79,  5.05 au

Overlap Fitting                  UseSFitting ... on
Constructing numerical overlap ... done (      0.3 sec)
Inverting numerical overlap    ... done (      0.0 sec)
Obtaining analytic overlap     ... done (      0.0 sec)
Final contraction and storage  ... done (      0.0 sec)


General Integration Accuracy     IntAcc      ...  4.010
Radial Grid Type                 RadialGrid  ... Gauss-Chebyshev
Angular Grid (max. acc.)         AngularGrid ... Lebedev-110
Angular grid pruning method      GridPruning ... 3 (G Style)
Weight generation scheme         WeightScheme... Becke
Basis function cutoff            BFCut       ...    1.0000e-11
Integration weight cutoff        WCut        ...    1.0000e-14
Grids for H and He will be reduced by one unit

# of grid points (after initial pruning)     ...  27082 (   0.0 sec)
# of grid points (after weights+screening)   ...  25301 (   0.2 sec)
nearest neighbour list constructed           ...    0.0 sec
Grid point re-assignment to atoms done       ...    0.0 sec
Grid point division into batches done        ...    0.0 sec
Reduced shell lists constructed in    0.7 sec

Total number of grid points                  ...    25301
Total number of batches                      ...      407
Average number of points per batch           ...       62
Average number of grid points per atom       ...     1100
Average number of shells per batch           ...    80.17 (43.10%)
Average number of basis functions per batch  ...   206.03 (44.02%)
Average number of large shells per batch     ...    54.58 (68.08%)
Average number of large basis fcns per batch ...   138.60 (67.27%)
Maximum spatial batch extension              ...  28.54, 26.36, 26.42 au
Average spatial batch extension              ...   4.22,  4.07,  4.12 au

Overlap Fitting                  UseSFitting ... on
Constructing numerical overlap ... done (      0.5 sec)
Inverting numerical overlap    ... done (      0.0 sec)
Obtaining analytic overlap     ... done (      0.0 sec)
Final contraction and storage  ... done (      0.0 sec)

Time for X-Grid setup             =    3.177 sec
--------------
SCF ITERATIONS
--------------
ITER       Energy         Delta-E        Max-DP      RMS-DP      [F,P]     Damp
               ***  Starting incremental Fock matrix formation  ***
  0  -3145.5389543679   0.000000000000 0.00306533  0.00004991  0.0652432 0.7000
                      *** Initiating the SOSCF procedure ***
                      *** Re-Reading the Fockian *** 
                      *** Removing any level shift *** 
ITER      Energy       Delta-E        Grad      Rot      Max-DP    RMS-DP
  1  -3145.53948779  -0.0005334191  0.001750  0.001750  0.009853  0.000164
               *** Restarting incremental Fock matrix formation ***
  2  -3145.54098824  -0.0015004551  0.001205  0.004002  0.004076  0.000066
  3  -3145.54111866  -0.0001304160  0.000727  0.003021  0.003235  0.000039
  4  -3145.54114436  -0.0000256993  0.000297  0.000601  0.000766  0.000012
  5  -3145.54114964  -0.0000052829  0.000035  0.000051  0.000197  0.000002
  6  -3145.54114980  -0.0000001634  0.000022  0.000067  0.000084  0.000001
  7  -3145.54114983  -0.0000000308  0.000005  0.000016  0.000029  0.000000
  8  -3145.54114983  -0.0000000003  0.000004  0.000004  0.000012  0.000000
                  ***Gradient check signals convergence***
              ***Rediagonalizing the Fockian in SOSCF/NRSCF***

               *****************************************************
               *                     SUCCESS                       *
               *           SCF CONVERGED AFTER   9 CYCLES          *
               *****************************************************

Old exchange energy                            =   -110.585896815 Eh
New exchange energy                            =   -110.594317786 Eh
Exchange energy change after final integration =     -0.008420971 Eh
Total energy after final integration           =  -3145.549570814 Eh
Final COS-X integration done in                =    97.967 sec

----------------
TOTAL SCF ENERGY
----------------

Total Energy       :        -3145.54957081 Eh          -85594.75538 eV

Components:
Nuclear Repulsion  :         1559.71749615 Eh           42442.07078 eV
Electronic Energy  :        -4705.26706697 Eh         -128036.82616 eV

One Electron Energy:        -7568.24010150 Eh         -205942.28307 eV
Two Electron Energy:         2862.97303453 Eh           77905.45691 eV

Virial components:
Potential Energy   :        -6157.91798373 Eh         -167565.46720 eV
Kinetic Energy     :         3012.36841291 Eh           81970.71183 eV
Virial Ratio       :            2.04421144


DFT components:
N(Alpha)           :       81.999983328226 electrons
N(Beta)            :       81.999983328226 electrons
N(Total)           :      163.999966656452 electrons
E(X)               :      -98.138923353739 Eh       
E(C)               :       -4.635296117300 Eh       
E(XC)              :     -102.774219471039 Eh       

---------------
SCF CONVERGENCE
---------------

  Last Energy change         ...   -7.4842e-09  Tolerance :   1.0000e-08
  Last MAX-Density change    ...    1.2741e-13  Tolerance :   1.0000e-07
  Last RMS-Density change    ...    8.5428e-16  Tolerance :   5.0000e-09
  Last Orbital Gradient      ...    3.4816e-07  Tolerance :   1.0000e-05
  Last Orbital Rotation      ...    7.7536e-07  Tolerance :   1.0000e-05

             **** THE GBW FILE WAS UPDATED (PbCl6NH3CH3-2_mp2_sp_9.orca.gbw) ****
             **** DENSITY FILE WAS UPDATED (PbCl6NH3CH3-2_mp2_sp_9.orca.scfp.tmp) ****
             **** ENERGY FILE WAS UPDATED (PbCl6NH3CH3-2_mp2_sp_9.orca.en.tmp) ****
----------------
ORBITAL ENERGIES
----------------

  NO   OCC          E(Eh)            E(eV) 
   0   2.0000    -102.586628     -2791.5241 
   1   2.0000    -102.583448     -2791.4375 
   2   2.0000    -102.581200     -2791.3764 
   3   2.0000    -102.580122     -2791.3470 
   4   2.0000    -102.577022     -2791.2627 
   5   2.0000    -102.575072     -2791.2096 
   6   2.0000     -14.703512      -400.1029 
   7   2.0000     -14.683245      -399.5514 
   8   2.0000     -10.497364      -285.6478 
   9   2.0000     -10.486071      -285.3405 
  10   2.0000      -9.593180      -261.0437 
  11   2.0000      -9.590274      -260.9646 
  12   2.0000      -9.587652      -260.8933 
  13   2.0000      -9.586478      -260.8613 
  14   2.0000      -9.583508      -260.7805 
  15   2.0000      -9.581959      -260.7384 
  16   2.0000      -7.229631      -196.7283 
  17   2.0000      -7.229347      -196.7205 
  18   2.0000      -7.228635      -196.7012 
  19   2.0000      -7.226715      -196.6489 
  20   2.0000      -7.226384      -196.6399 
  21   2.0000      -7.225735      -196.6223 
  22   2.0000      -7.224067      -196.5769 
  23   2.0000      -7.223827      -196.5703 
  24   2.0000      -7.223162      -196.5522 
  25   2.0000      -7.222838      -196.5434 
  26   2.0000      -7.222741      -196.5408 
  27   2.0000      -7.222009      -196.5209 
  28   2.0000      -7.219965      -196.4652 
  29   2.0000      -7.219676      -196.4574 
  30   2.0000      -7.218997      -196.4389 
  31   2.0000      -7.218262      -196.4189 
  32   2.0000      -7.218213      -196.4176 
  33   2.0000      -7.217450      -196.3968 
  34   2.0000      -5.561074      -151.3245 
  35   2.0000      -3.331793       -90.6627 
  36   2.0000      -3.331248       -90.6479 
  37   2.0000      -3.330541       -90.6286 
  38   2.0000      -0.888671       -24.1820 
  39   2.0000      -0.873449       -23.7678 
  40   2.0000      -0.720253       -19.5991 
  41   2.0000      -0.719814       -19.5871 
  42   2.0000      -0.719055       -19.5665 
  43   2.0000      -0.717545       -19.5254 
  44   2.0000      -0.717217       -19.5165 
  45   2.0000      -0.639201       -17.3935 
  46   2.0000      -0.629581       -17.1318 
  47   2.0000      -0.603513       -16.4224 
  48   2.0000      -0.600913       -16.3517 
  49   2.0000      -0.597309       -16.2536 
  50   2.0000      -0.595719       -16.2103 
  51   2.0000      -0.594550       -16.1785 
  52   2.0000      -0.590190       -16.0599 
  53   2.0000      -0.418855       -11.3976 
  54   2.0000      -0.418230       -11.3806 
  55   2.0000      -0.404968       -11.0198 
  56   2.0000      -0.404436       -11.0053 
  57   2.0000      -0.370666       -10.0863 
  58   2.0000      -0.357026        -9.7152 
  59   2.0000      -0.297025        -8.0825 
  60   2.0000      -0.296590        -8.0706 
  61   2.0000      -0.290295        -7.8993 
  62   2.0000      -0.285880        -7.7792 
  63   2.0000      -0.285328        -7.7642 
  64   2.0000      -0.115671        -3.1476 
  65   2.0000      -0.110202        -2.9987 
  66   2.0000      -0.107046        -2.9129 
  67   2.0000      -0.097185        -2.6445 
  68   2.0000      -0.089068        -2.4237 
  69   2.0000      -0.087265        -2.3746 
  70   2.0000      -0.086449        -2.3524 
  71   2.0000      -0.082118        -2.2345 
  72   2.0000      -0.081646        -2.2217 
  73   2.0000      -0.081082        -2.2064 
  74   2.0000      -0.080225        -2.1830 
  75   2.0000      -0.078329        -2.1314 
  76   2.0000      -0.077196        -2.1006 
  77   2.0000      -0.075443        -2.0529 
  78   2.0000      -0.075155        -2.0451 
  79   2.0000      -0.074309        -2.0221 
  80   2.0000      -0.069011        -1.8779 
  81   2.0000      -0.043305        -1.1784 
  82   0.0000       0.236690         6.4407 
  83   0.0000       0.244615         6.6563 
  84   0.0000       0.256408         6.9772 
  85   0.0000       0.257966         7.0196 
  86   0.0000       0.269364         7.3298 
  87   0.0000       0.301277         8.1982 
  88   0.0000       0.302621         8.2347 
  89   0.0000       0.303801         8.2668 
  90   0.0000       0.310503         8.4492 
  91   0.0000       0.311868         8.4864 
  92   0.0000       0.313023         8.5178 
  93   0.0000       0.370236        10.0746 
  94   0.0000       0.374256        10.1840 
  95   0.0000       0.380399        10.3512 
  96   0.0000       0.385270        10.4837 
  97   0.0000       0.409319        11.1381 
  98   0.0000       0.413167        11.2428 
  99   0.0000       0.415092        11.2952 
 100   0.0000       0.417654        11.3650 
 101   0.0000       0.442836        12.0502 
 102   0.0000       0.458153        12.4670 
 103   0.0000       0.487346        13.2614 
 104   0.0000       0.490336        13.3427 
 105   0.0000       0.492933        13.4134 
 106   0.0000       0.495242        13.4762 
 107   0.0000       0.504818        13.7368 
 108   0.0000       0.510290        13.8857 
 109   0.0000       0.518494        14.1089 
 110   0.0000       0.525419        14.2974 
 111   0.0000       0.526833        14.3359 
 112   0.0000       0.543633        14.7930 
 113   0.0000       0.549675        14.9574 
 114   0.0000       0.551597        15.0097 
 115   0.0000       0.588559        16.0155 
 116   0.0000       0.589815        16.0497 
 117   0.0000       0.591824        16.1043 
 118   0.0000       0.603199        16.4139 
 119   0.0000       0.616944        16.7879 
 120   0.0000       0.633693        17.2437 
 121   0.0000       0.639467        17.4008 
 122   0.0000       0.640531        17.4297 
 123   0.0000       0.661996        18.0138 
 124   0.0000       0.665351        18.1051 
 125   0.0000       0.668607        18.1937 
 126   0.0000       0.676562        18.4102 
 127   0.0000       0.681413        18.5422 
 128   0.0000       0.682689        18.5769 
 129   0.0000       0.685864        18.6633 
 130   0.0000       0.693401        18.8684 
 131   0.0000       0.694839        18.9075 
 132   0.0000       0.701787        19.0966 
 133   0.0000       0.709253        19.2998 
 134   0.0000       0.713398        19.4126 
 135   0.0000       0.723739        19.6939 
 136   0.0000       0.729792        19.8587 
 137   0.0000       0.734147        19.9772 
 138   0.0000       0.737539        20.0695 
 139   0.0000       0.742687        20.2096 
 140   0.0000       0.743341        20.2273 
 141   0.0000       0.746684        20.3183 
 142   0.0000       0.749792        20.4029 
 143   0.0000       0.751067        20.4376 
 144   0.0000       0.761271        20.7152 
 145   0.0000       0.763557        20.7775 
 146   0.0000       0.768520        20.9125 
 147   0.0000       0.773110        21.0374 
 148   0.0000       0.779849        21.2208 
 149   0.0000       0.782104        21.2821 
 150   0.0000       0.790783        21.5183 
 151   0.0000       0.806367        21.9424 
 152   0.0000       0.807194        21.9649 
 153   0.0000       0.810969        22.0676 
 154   0.0000       0.812615        22.1124 
 155   0.0000       0.814416        22.1614 
 156   0.0000       0.814627        22.1671 
 157   0.0000       0.817912        22.2565 
 158   0.0000       0.822868        22.3914 
 159   0.0000       0.823966        22.4213 
 160   0.0000       0.833753        22.6876 
 161   0.0000       0.838542        22.8179 
 162   0.0000       0.841149        22.8888 
 163   0.0000       0.843922        22.9643 
 164   0.0000       0.859634        23.3918 
 165   0.0000       0.864057        23.5122 
 166   0.0000       0.870333        23.6830 
 167   0.0000       0.896760        24.4021 
 168   0.0000       0.910878        24.7862 
 169   0.0000       0.920257        25.0415 
 170   0.0000       0.924751        25.1638 
 171   0.0000       0.931396        25.3446 
 172   0.0000       0.935229        25.4489 
 173   0.0000       0.951813        25.9001 
 174   0.0000       0.966052        26.2876 
 175   0.0000       0.967847        26.3364 
 176   0.0000       0.970602        26.4114 
 177   0.0000       0.974295        26.5119 
 178   0.0000       0.983017        26.7493 
 179   0.0000       0.984789        26.7975 
 180   0.0000       0.991160        26.9708 
 181   0.0000       1.005181        27.3524 
 182   0.0000       1.007028        27.4026 
 183   0.0000       1.021597        27.7991 
 184   0.0000       1.051480        28.6122 
 185   0.0000       1.058261        28.7967 
 186   0.0000       1.067112        29.0376 
 187   0.0000       1.069645        29.1065 
 188   0.0000       1.072775        29.1917 
 189   0.0000       1.075011        29.2525 
 190   0.0000       1.077773        29.3277 
 191   0.0000       1.084234        29.5035 
 192   0.0000       1.087042        29.5799 
 193   0.0000       1.123180        30.5633 
 194   0.0000       1.127767        30.6881 
 195   0.0000       1.144860        31.1532 
 196   0.0000       1.147335        31.2206 
 197   0.0000       1.147883        31.2355 
 198   0.0000       1.187270        32.3073 
 199   0.0000       1.194830        32.5130 
 200   0.0000       1.222628        33.2694 
 201   0.0000       1.225672        33.3522 
 202   0.0000       1.267440        34.4888 
 203   0.0000       1.314557        35.7709 
 204   0.0000       1.332943        36.2712 
 205   0.0000       1.347043        36.6549 
 206   0.0000       1.410104        38.3709 
 207   0.0000       1.415798        38.5258 
 208   0.0000       1.420355        38.6498 
 209   0.0000       1.425989        38.8031 
 210   0.0000       1.436856        39.0988 
 211   0.0000       1.443101        39.2688 
 212   0.0000       1.446414        39.3589 
 213   0.0000       1.462770        39.8040 
 214   0.0000       1.467815        39.9413 
 215   0.0000       1.529089        41.6086 
 216   0.0000       1.544062        42.0161 
 217   0.0000       1.568692        42.6863 
 218   0.0000       1.589151        43.2430 
 219   0.0000       1.660141        45.1747 
 220   0.0000       1.671769        45.4912 
 221   0.0000       1.687416        45.9169 
 222   0.0000       1.702628        46.3309 
 223   0.0000       1.705852        46.4186 
 224   0.0000       1.714219        46.6463 
 225   0.0000       1.770756        48.1847 
 226   0.0000       1.780834        48.4589 
 227   0.0000       1.812810        49.3291 
 228   0.0000       1.815564        49.4040 
 229   0.0000       1.829043        49.7708 
 230   0.0000       1.831533        49.8386 
 231   0.0000       1.843198        50.1560 
 232   0.0000       1.847084        50.2617 
 233   0.0000       1.853724        50.4424 
 234   0.0000       1.856045        50.5056 
 235   0.0000       1.972422        53.6723 
 236   0.0000       1.991165        54.1823 
 237   0.0000       2.022459        55.0339 
 238   0.0000       2.026460        55.1428 
 239   0.0000       2.029898        55.2363 
 240   0.0000       2.030849        55.2622 
 241   0.0000       2.115031        57.5529 
 242   0.0000       2.116732        57.5992 
 243   0.0000       2.125641        57.8416 
 244   0.0000       2.126992        57.8784 
 245   0.0000       2.160377        58.7868 
 246   0.0000       2.160688        58.7953 
 247   0.0000       2.169895        59.0458 
 248   0.0000       2.172159        59.1075 
 249   0.0000       2.177543        59.2539 
 250   0.0000       2.182104        59.3781 
 251   0.0000       2.183023        59.4031 
 252   0.0000       2.184988        59.4566 
 253   0.0000       2.186138        59.4878 
 254   0.0000       2.193304        59.6828 
 255   0.0000       2.209176        60.1147 
 256   0.0000       2.214101        60.2487 
 257   0.0000       2.217089        60.3300 
 258   0.0000       2.226845        60.5955 
 259   0.0000       2.230942        60.7070 
 260   0.0000       2.232065        60.7376 
 261   0.0000       2.235399        60.8283 
 262   0.0000       2.244097        61.0650 
 263   0.0000       2.247424        61.1555 
 264   0.0000       2.249171        61.2031 
 265   0.0000       2.257738        61.4362 
 266   0.0000       2.259944        61.4962 
 267   0.0000       2.269553        61.7577 
 268   0.0000       2.278855        62.0108 
 269   0.0000       2.289255        62.2938 
 270   0.0000       2.293513        62.4096 
 271   0.0000       2.298772        62.5528 
 272   0.0000       2.303336        62.6770 
 273   0.0000       2.305496        62.7357 
 274   0.0000       2.309922        62.8562 
 275   0.0000       2.354369        64.0656 
 276   0.0000       2.361145        64.2500 
 277   0.0000       2.368434        64.4484 
 278   0.0000       2.370794        64.5126 
 279   0.0000       2.375194        64.6323 
 280   0.0000       2.407567        65.5132 
 281   0.0000       2.408979        65.5516 
 282   0.0000       2.418646        65.8147 
 283   0.0000       2.420646        65.8691 
 284   0.0000       2.425238        65.9941 
 285   0.0000       2.429213        66.1022 
 286   0.0000       2.434106        66.2354 
 287   0.0000       2.447693        66.6051 
 288   0.0000       2.451987        66.7220 
 289   0.0000       2.455575        66.8196 
 290   0.0000       2.455956        66.8300 
 291   0.0000       2.460602        66.9564 
 292   0.0000       2.463177        67.0265 
 293   0.0000       2.467115        67.1336 
 294   0.0000       2.472581        67.2823 
 295   0.0000       2.490220        67.7623 
 296   0.0000       2.504673        68.1556 
 297   0.0000       2.507366        68.2289 
 298   0.0000       2.508995        68.2732 
 299   0.0000       2.511447        68.3399 
 300   0.0000       2.512245        68.3617 
 301   0.0000       2.514629        68.4265 
 302   0.0000       2.516234        68.4702 
 303   0.0000       2.517104        68.4939 
 304   0.0000       2.518578        68.5340 
 305   0.0000       2.519451        68.5578 
 306   0.0000       2.521478        68.6129 
 307   0.0000       2.521795        68.6215 
 308   0.0000       2.523836        68.6771 
 309   0.0000       2.530522        68.8590 
 310   0.0000       2.531679        68.8905 
 311   0.0000       2.534655        68.9715 
 312   0.0000       2.535999        69.0080 
 313   0.0000       2.541508        69.1579 
 314   0.0000       2.541898        69.1686 
 315   0.0000       2.546449        69.2924 
 316   0.0000       2.549897        69.3862 
 317   0.0000       2.559999        69.6611 
 318   0.0000       2.561610        69.7050 
 319   0.0000       2.563987        69.7696 
 320   0.0000       2.568755        69.8994 
 321   0.0000       2.570305        69.9416 
 322   0.0000       2.576960        70.1226 
 323   0.0000       2.580264        70.2125 
 324   0.0000       2.590440        70.4895 
 325   0.0000       2.595616        70.6303 
 326   0.0000       2.606919        70.9379 
 327   0.0000       2.617303        71.2204 
 328   0.0000       2.625143        71.4338 
 329   0.0000       2.625809        71.4519 
 330   0.0000       2.628649        71.5292 
 331   0.0000       2.632357        71.6301 
 332   0.0000       2.634351        71.6843 
 333   0.0000       2.635564        71.7174 
 334   0.0000       2.641917        71.8902 
 335   0.0000       2.644230        71.9532 
 336   0.0000       2.645513        71.9881 
 337   0.0000       2.652591        72.1807 
 338   0.0000       2.657531        72.3151 
 339   0.0000       2.663005        72.4640 
 340   0.0000       2.664038        72.4922 
 341   0.0000       2.671502        72.6953 
 342   0.0000       2.703028        73.5531 
 343   0.0000       2.711558        73.7852 
 344   0.0000       2.715073        73.8809 
 345   0.0000       2.721065        74.0439 
 346   0.0000       2.723393        74.1073 
 347   0.0000       2.731307        74.3227 
 348   0.0000       2.746417        74.7338 
 349   0.0000       2.751772        74.8795 
 350   0.0000       2.764241        75.2188 
 351   0.0000       2.777894        75.5903 
 352   0.0000       2.785688        75.8024 
 353   0.0000       2.787279        75.8457 
 354   0.0000       2.793355        76.0111 
 355   0.0000       2.799293        76.1726 
 356   0.0000       2.803034        76.2744 
 357   0.0000       2.835264        77.1515 
 358   0.0000       2.837938        77.2242 
 359   0.0000       2.858009        77.7704 
 360   0.0000       2.860211        77.8303 
 361   0.0000       2.904389        79.0325 
 362   0.0000       2.919026        79.4307 
 363   0.0000       2.961623        80.5899 
 364   0.0000       2.987071        81.2823 
 365   0.0000       2.992663        81.4345 
 366   0.0000       3.001820        81.6837 
 367   0.0000       3.018518        82.1381 
 368   0.0000       3.029647        82.4409 
 369   0.0000       3.045862        82.8821 
 370   0.0000       3.050349        83.0042 
 371   0.0000       3.057545        83.2000 
 372   0.0000       3.059228        83.2458 
 373   0.0000       3.076853        83.7254 
 374   0.0000       3.098372        84.3110 
 375   0.0000       3.143371        85.5355 
 376   0.0000       3.164706        86.1160 
 377   0.0000       3.182676        86.6050 
 378   0.0000       3.306336        89.9700 
 379   0.0000       3.352084        91.2149 
 380   0.0000       3.354163        91.2714 
 381   0.0000       3.365115        91.5694 
 382   0.0000       3.368515        91.6619 
 383   0.0000       3.395965        92.4089 
 384   0.0000       3.436907        93.5230 
 385   0.0000       3.442505        93.6753 
 386   0.0000       3.459723        94.1438 
 387   0.0000       3.461616        94.1954 
 388   0.0000       3.480756        94.7162 
 389   0.0000       3.526369        95.9574 
 390   0.0000       3.556389        96.7743 
 391   0.0000       3.589033        97.6626 
 392   0.0000       3.600394        97.9717 
 393   0.0000       3.782013       102.9138 
 394   0.0000       3.797260       103.3287 
 395   0.0000       3.804745       103.5324 
 396   0.0000       3.806260       103.5736 
 397   0.0000       3.819106       103.9232 
 398   0.0000       3.822061       104.0036 
 399   0.0000       4.021481       109.4301 
 400   0.0000       4.025698       109.5448 
 401   0.0000       4.040731       109.9539 
 402   0.0000       4.050840       110.2290 
 403   0.0000       4.162208       113.2594 
 404   0.0000       4.177248       113.6687 
 405   0.0000       4.424274       120.3906 
 406   0.0000       4.426629       120.4547 
 407   0.0000       4.440326       120.8274 
 408   0.0000       4.443837       120.9229 
 409   0.0000       4.638542       126.2211 
 410   0.0000       4.650177       126.5377 
 411   0.0000       4.650981       126.5596 
 412   0.0000       4.673673       127.1771 
 413   0.0000       5.116802       139.2353 
 414   0.0000       5.118660       139.2858 
 415   0.0000       5.137768       139.8058 
 416   0.0000       5.138712       139.8315 
 417   0.0000       5.228029       142.2619 
 418   0.0000       5.232336       142.3791 
 419   0.0000       5.252107       142.9171 
 420   0.0000       5.259137       143.1084 
 421   0.0000       5.333288       145.1261 
 422   0.0000       5.357209       145.7771 
 423   0.0000       5.361495       145.8937 
 424   0.0000       5.364383       145.9723 
 425   0.0000       5.381452       146.4368 
 426   0.0000       5.409832       147.2090 
 427   0.0000       5.570960       151.5935 
 428   0.0000       5.593932       152.2186 
 429   0.0000       5.742988       156.2746 
 430   0.0000       5.743502       156.2886 
 431   0.0000       5.761915       156.7897 
 432   0.0000       5.764433       156.8582 
 433   0.0000       6.041808       164.4060 
 434   0.0000       6.060617       164.9178 
 435   0.0000      11.297670       307.4252 
 436   0.0000      11.300580       307.5044 
 437   0.0000      11.314802       307.8914 
 438   0.0000      11.324869       308.1654 
 439   0.0000      11.332693       308.3783 
 440   0.0000      11.335928       308.4663 
 441   0.0000      11.347761       308.7883 
 442   0.0000      11.358374       309.0771 
 443   0.0000      11.366595       309.3008 
 444   0.0000      11.370061       309.3951 
 445   0.0000      11.374365       309.5122 
 446   0.0000      11.375547       309.5444 
 447   0.0000      11.376633       309.5739 
 448   0.0000      11.389256       309.9174 
 449   0.0000      11.395801       310.0955 
 450   0.0000      11.408986       310.4543 
 451   0.0000      11.428053       310.9731 
 452   0.0000      11.440413       311.3095 
 453   0.0000      22.900749       623.1611 
 454   0.0000      22.917261       623.6104 
 455   0.0000      25.345415       689.6838 
 456   0.0000      25.353149       689.8943 
 457   0.0000      25.427116       691.9070 
 458   0.0000      25.454785       692.6599 
 459   0.0000      25.535224       694.8488 
 460   0.0000      25.601361       696.6485 
 461   0.0000      32.666501       888.9007 
 462   0.0000      32.708573       890.0455 
 463   0.0000      35.897020       976.8076 
 464   0.0000      36.029870       980.4226 
 465   0.0000      36.037981       980.6433 
 466   0.0000      36.186497       984.6846 
 467   0.0000     123.877553      3370.8796 

                    ********************************
                    * MULLIKEN POPULATION ANALYSIS *
                    ********************************

-----------------------
MULLIKEN ATOMIC CHARGES
-----------------------
   0 C :   -0.242970
   1 N :   -0.303507
   2 H :    0.112178
   3 H :    0.114108
   4 H :    0.111280
   5 H :    0.282657
   6 H :    0.267873
   7 H :    0.267230
   8 Pb:    1.114817
   9 Cl:   -0.713113
  10 Cl:   -0.726193
  11 Cl:   -0.737707
  12 Cl:   -0.718630
  13 Cl:   -0.711978
  14 Cl:   -0.734005
  15 N :   -0.286940
  16 C :   -0.244160
  17 H :    0.261083
  18 H :    0.266984
  19 H :    0.118652
  20 H :    0.118681
  21 H :    0.116241
  22 H :    0.267421
Sum of atomic charges:   -2.0000000

--------------------------------
MULLIKEN REDUCED ORBITAL CHARGES
--------------------------------
  0 C s       :     3.239255  s :     3.239255
      pz      :     0.993905  p :     2.916692
      px      :     0.983874
      py      :     0.938913
      dz2     :     0.008032  d :     0.080572
      dxz     :     0.020858
      dyz     :     0.019567
      dx2y2   :     0.012451
      dxy     :     0.019664
      f0      :     0.000297  f :     0.006451
      f+1     :     0.000609
      f-1     :     0.000857
      f+2     :     0.000677
      f-2     :     0.002508
      f+3     :     0.000659
      f-3     :     0.000843
  1 N s       :     3.413631  s :     3.413631
      pz      :     1.301582  p :     3.839211
      px      :     1.286115
      py      :     1.251514
      dz2     :     0.004066  d :     0.048390
      dxz     :     0.013093
      dyz     :     0.012210
      dx2y2   :     0.006299
      dxy     :     0.012722
      f0      :     0.000142  f :     0.002275
      f+1     :     0.000201
      f-1     :     0.000207
      f+2     :     0.000207
      f-2     :     0.001068
      f+3     :     0.000224
      f-3     :     0.000227
  2 H s       :     0.866821  s :     0.866821
      pz      :     0.008106  p :     0.021001
      px      :     0.007522
      py      :     0.005373
  3 H s       :     0.864848  s :     0.864848
      pz      :     0.006298  p :     0.021044
      px      :     0.007162
      py      :     0.007583
  4 H s       :     0.867742  s :     0.867742
      pz      :     0.007721  p :     0.020978
      px      :     0.006752
      py      :     0.006505
  5 H s       :     0.667753  s :     0.667753
      pz      :     0.013527  p :     0.049591
      px      :     0.017722
      py      :     0.018342
  6 H s       :     0.686455  s :     0.686455
      pz      :     0.014958  p :     0.045673
      px      :     0.010659
      py      :     0.020055
  7 H s       :     0.687398  s :     0.687398
      pz      :     0.019271  p :     0.045372
      px      :     0.018837
      py      :     0.007263
  8 Pbs       :     4.013172  s :     4.013172
      pz      :     2.229136  p :     6.712447
      px      :     2.251966
      py      :     2.231346
      dz2     :     2.040901  d :    10.132189
      dxz     :     2.015177
      dyz     :     2.016113
      dx2y2   :     2.044747
      dxy     :     2.015252
      f0      :     0.005938  f :     0.027375
      f+1     :     0.004032
      f-1     :     0.004097
      f+2     :     0.002281
      f-2     :     0.000270
      f+3     :     0.005310
      f-3     :     0.005448
  9 Cls       :     5.957867  s :     5.957867
      pz      :     3.941638  p :    11.746406
      px      :     3.885453
      py      :     3.919315
      dz2     :     0.001176  d :     0.008518
      dxz     :     0.000737
      dyz     :     0.002284
      dx2y2   :     0.003389
      dxy     :     0.000931
      f0      :     0.000037  f :     0.000323
      f+1     :     0.000050
      f-1     :     0.000039
      f+2     :     0.000066
      f-2     :     0.000036
      f+3     :     0.000074
      f-3     :     0.000020
 10 Cls       :     5.959119  s :     5.959119
      pz      :     3.939999  p :    11.759547
      px      :     3.931854
      py      :     3.887694
      dz2     :     0.001043  d :     0.007259
      dxz     :     0.002548
      dyz     :     0.000570
      dx2y2   :     0.002501
      dxy     :     0.000596
      f0      :     0.000021  f :     0.000268
      f+1     :     0.000066
      f-1     :     0.000029
      f+2     :     0.000073
      f-2     :     0.000016
      f+3     :     0.000016
      f-3     :     0.000048
 11 Cls       :     5.955966  s :     5.955966
      pz      :     3.916828  p :    11.773072
      px      :     3.936442
      py      :     3.919802
      dz2     :     0.002421  d :     0.008281
      dxz     :     0.001173
      dyz     :     0.001339
      dx2y2   :     0.000466
      dxy     :     0.002882
      f0      :     0.000085  f :     0.000388
      f+1     :     0.000012
      f-1     :     0.000018
      f+2     :     0.000007
      f-2     :     0.000117
      f+3     :     0.000086
      f-3     :     0.000063
 12 Cls       :     5.959765  s :     5.959765
      pz      :     3.942981  p :    11.751211
      px      :     3.890393
      py      :     3.917837
      dz2     :     0.001064  d :     0.007407
      dxz     :     0.000632
      dyz     :     0.001843
      dx2y2   :     0.003092
      dxy     :     0.000776
      f0      :     0.000029  f :     0.000247
      f+1     :     0.000044
      f-1     :     0.000026
      f+2     :     0.000045
      f-2     :     0.000024
      f+3     :     0.000067
      f-3     :     0.000012
 13 Cls       :     5.958973  s :     5.958973
      pz      :     3.886494  p :    11.744805
      px      :     3.938390
      py      :     3.919920
      dz2     :     0.003560  d :     0.007914
      dxz     :     0.000858
      dyz     :     0.000980
      dx2y2   :     0.000418
      dxy     :     0.002098
      f0      :     0.000104  f :     0.000286
      f+1     :     0.000017
      f-1     :     0.000023
      f+2     :     0.000005
      f-2     :     0.000045
      f+3     :     0.000056
      f-3     :     0.000035
 14 Cls       :     5.959430  s :     5.959430
      pz      :     3.936689  p :    11.767571
      px      :     3.928636
      py      :     3.902247
      dz2     :     0.000961  d :     0.006767
      dxz     :     0.002432
      dyz     :     0.000596
      dx2y2   :     0.002230
      dxy     :     0.000549
      f0      :     0.000019  f :     0.000237
      f+1     :     0.000059
      f-1     :     0.000025
      f+2     :     0.000062
      f-2     :     0.000020
      f+3     :     0.000011
      f-3     :     0.000041
 15 N s       :     3.408337  s :     3.408337
      pz      :     1.296577  p :     3.828458
      px      :     1.285750
      py      :     1.246131
      dz2     :     0.004060  d :     0.047894
      dxz     :     0.012900
      dyz     :     0.012078
      dx2y2   :     0.006404
      dxy     :     0.012453
      f0      :     0.000131  f :     0.002252
      f+1     :     0.000202
      f-1     :     0.000209
      f+2     :     0.000208
      f-2     :     0.001048
      f+3     :     0.000224
      f-3     :     0.000228
 16 C s       :     3.242703  s :     3.242703
      pz      :     0.998533  p :     2.915417
      px      :     0.985267
      py      :     0.931618
      dz2     :     0.007752  d :     0.079610
      dxz     :     0.020684
      dyz     :     0.019278
      dx2y2   :     0.012231
      dxy     :     0.019665
      f0      :     0.000298  f :     0.006430
      f+1     :     0.000596
      f-1     :     0.000846
      f+2     :     0.000674
      f-2     :     0.002487
      f+3     :     0.000669
      f-3     :     0.000861
 17 H s       :     0.695191  s :     0.695191
      pz      :     0.014060  p :     0.043727
      px      :     0.010461
      py      :     0.019207
 18 H s       :     0.687779  s :     0.687779
      pz      :     0.012078  p :     0.045237
      px      :     0.016184
      py      :     0.016974
 19 H s       :     0.860263  s :     0.860263
      pz      :     0.007800  p :     0.021086
      px      :     0.006771
      py      :     0.006515
 20 H s       :     0.860234  s :     0.860234
      pz      :     0.006199  p :     0.021085
      px      :     0.007226
      py      :     0.007660
 21 H s       :     0.862744  s :     0.862744
      pz      :     0.008211  p :     0.021015
      px      :     0.007601
      py      :     0.005203
 22 H s       :     0.687614  s :     0.687614
      pz      :     0.019121  p :     0.044965
      px      :     0.018552
      py      :     0.007291


                     *******************************
                     * LOEWDIN POPULATION ANALYSIS *
                     *******************************

----------------------
LOEWDIN ATOMIC CHARGES
----------------------
   0 C :   -0.327459
   1 N :    0.035810
   2 H :    0.108943
   3 H :    0.109568
   4 H :    0.108026
   5 H :    0.118841
   6 H :    0.137873
   7 H :    0.138854
   8 Pb:    0.212186
   9 Cl:   -0.487685
  10 Cl:   -0.528797
  11 Cl:   -0.541855
  12 Cl:   -0.517598
  13 Cl:   -0.503811
  14 Cl:   -0.553923
  15 N :    0.046412
  16 C :   -0.321250
  17 H :    0.148243
  18 H :    0.141974
  19 H :    0.111219
  20 H :    0.111353
  21 H :    0.110178
  22 H :    0.142898

-------------------------------
LOEWDIN REDUCED ORBITAL CHARGES
-------------------------------
  0 C s       :     2.849179  s :     2.849179
      pz      :     1.049724  p :     3.102064
      px      :     1.041249
      py      :     1.011091
      dz2     :     0.031901  d :     0.336695
      dxz     :     0.085751
      dyz     :     0.084716
      dx2y2   :     0.045477
      dxy     :     0.088850
      f0      :     0.004616  f :     0.039522
      f+1     :     0.004360
      f-1     :     0.006730
      f+2     :     0.004121
      f-2     :     0.006840
      f+3     :     0.005709
      f-3     :     0.007144
  1 N s       :     3.019332  s :     3.019332
      pz      :     1.269347  p :     3.780689
      px      :     1.262433
      py      :     1.248909
      dz2     :     0.014292  d :     0.154446
      dxz     :     0.039961
      dyz     :     0.038767
      dx2y2   :     0.021207
      dxy     :     0.040218
      f0      :     0.001227  f :     0.009723
      f+1     :     0.001105
      f-1     :     0.001457
      f+2     :     0.000985
      f-2     :     0.001958
      f+3     :     0.001346
      f-3     :     0.001644
  2 H s       :     0.831260  s :     0.831260
      pz      :     0.022474  p :     0.059797
      px      :     0.020954
      py      :     0.016369
  3 H s       :     0.830560  s :     0.830560
      pz      :     0.018031  p :     0.059872
      px      :     0.021169
      py      :     0.020672
  4 H s       :     0.832135  s :     0.832135
      pz      :     0.022660  p :     0.059839
      px      :     0.019100
      py      :     0.018079
  5 H s       :     0.719798  s :     0.719798
      pz      :     0.047251  p :     0.161361
      px      :     0.056437
      py      :     0.057672
  6 H s       :     0.720074  s :     0.720074
      pz      :     0.045185  p :     0.142053
      px      :     0.036616
      py      :     0.060252
  7 H s       :     0.720237  s :     0.720237
      pz      :     0.059039  p :     0.140909
      px      :     0.057063
      py      :     0.024807
  8 Pbs       :     3.933352  s :     3.933352
      pz      :     2.379937  p :     7.181957
      px      :     2.416349
      py      :     2.385671
      dz2     :     2.207230  d :    10.601634
      dxz     :     2.053466
      dyz     :     2.057796
      dx2y2   :     2.228186
      dxy     :     2.054956
      f0      :     0.015839  f :     0.070871
      f+1     :     0.010561
      f-1     :     0.010389
      f+2     :     0.005380
      f-2     :     0.000576
      f+3     :     0.014297
      f-3     :     0.013830
  9 Cls       :     5.840508  s :     5.840508
      pz      :     3.914202  p :    11.631305
      px      :     3.830983
      py      :     3.886120
      dz2     :     0.002086  d :     0.015163
      dxz     :     0.000788
      dyz     :     0.004306
      dx2y2   :     0.006685
      dxy     :     0.001297
      f0      :     0.000058  f :     0.000708
      f+1     :     0.000102
      f-1     :     0.000077
      f+2     :     0.000164
      f-2     :     0.000081
      f+3     :     0.000179
      f-3     :     0.000047
 10 Cls       :     5.858758  s :     5.858758
      pz      :     3.911883  p :    11.657409
      px      :     3.905953
      py      :     3.839574
      dz2     :     0.001670  d :     0.012067
      dxz     :     0.004621
      dyz     :     0.000567
      dx2y2   :     0.004645
      dxy     :     0.000564
      f0      :     0.000029  f :     0.000562
      f+1     :     0.000147
      f-1     :     0.000052
      f+2     :     0.000184
      f-2     :     0.000021
      f+3     :     0.000040
      f-3     :     0.000090
 11 Cls       :     5.860671  s :     5.860671
      pz      :     3.863076  p :    11.666317
      px      :     3.910845
      py      :     3.892396
      dz2     :     0.003872  d :     0.014021
      dxz     :     0.001924
      dyz     :     0.002460
      dx2y2   :     0.000510
      dxy     :     0.005254
      f0      :     0.000204  f :     0.000846
      f+1     :     0.000020
      f-1     :     0.000037
      f+2     :     0.000009
      f-2     :     0.000279
      f+3     :     0.000174
      f-3     :     0.000123
 12 Cls       :     5.853470  s :     5.853470
      pz      :     3.921255  p :    11.650961
      px      :     3.836970
      py      :     3.892736
      dz2     :     0.001850  d :     0.012649
      dxz     :     0.000618
      dyz     :     0.003219
      dx2y2   :     0.006037
      dxy     :     0.000925
      f0      :     0.000042  f :     0.000518
      f+1     :     0.000086
      f-1     :     0.000047
      f+2     :     0.000109
      f-2     :     0.000051
      f+3     :     0.000156
      f-3     :     0.000028
 13 Cls       :     5.849855  s :     5.849855
      pz      :     3.832318  p :    11.640108
      px      :     3.913356
      py      :     3.894433
      dz2     :     0.006521  d :     0.013249
      dxz     :     0.001039
      dyz     :     0.001457
      dx2y2   :     0.000469
      dxy     :     0.003763
      f0      :     0.000230  f :     0.000599
      f+1     :     0.000027
      f-1     :     0.000046
      f+2     :     0.000007
      f-2     :     0.000106
      f+3     :     0.000116
      f-3     :     0.000067
 14 Cls       :     5.867704  s :     5.867704
      pz      :     3.912496  p :    11.674671
      px      :     3.907020
      py      :     3.855155
      dz2     :     0.001529  d :     0.011052
      dxz     :     0.004190
      dyz     :     0.000620
      dx2y2   :     0.004164
      dxy     :     0.000549
      f0      :     0.000027  f :     0.000495
      f+1     :     0.000126
      f-1     :     0.000047
      f+2     :     0.000153
      f-2     :     0.000031
      f+3     :     0.000030
      f-3     :     0.000082
 15 N s       :     3.017215  s :     3.017215
      pz      :     1.265091  p :     3.772721
      px      :     1.260861
      py      :     1.246769
      dz2     :     0.014235  d :     0.154054
      dxz     :     0.039622
      dyz     :     0.038605
      dx2y2   :     0.021497
      dxy     :     0.040094
      f0      :     0.001197  f :     0.009599
      f+1     :     0.001093
      f-1     :     0.001494
      f+2     :     0.000983
      f-2     :     0.001827
      f+3     :     0.001333
      f-3     :     0.001673
 16 C s       :     2.849229  s :     2.849229
      pz      :     1.051206  p :     3.099828
      px      :     1.042018
      py      :     1.006604
      dz2     :     0.030770  d :     0.332817
      dxz     :     0.085049
      dyz     :     0.083646
      dx2y2   :     0.045447
      dxy     :     0.087905
      f0      :     0.004548  f :     0.039375
      f+1     :     0.004191
      f-1     :     0.006735
      f+2     :     0.004095
      f-2     :     0.006836
      f+3     :     0.005702
      f-3     :     0.007267
 17 H s       :     0.718047  s :     0.718047
      pz      :     0.041648  p :     0.133711
      px      :     0.035824
      py      :     0.056238
 18 H s       :     0.718000  s :     0.718000
      pz      :     0.041259  p :     0.140026
      px      :     0.048698
      py      :     0.050069
 19 H s       :     0.828742  s :     0.828742
      pz      :     0.022899  p :     0.060038
      px      :     0.019113
      py      :     0.018025
 20 H s       :     0.828617  s :     0.828617
      pz      :     0.017822  p :     0.060030
      px      :     0.021388
      py      :     0.020820
 21 H s       :     0.829896  s :     0.829896
      pz      :     0.022790  p :     0.059927
      px      :     0.021181
      py      :     0.015955
 22 H s       :     0.717631  s :     0.717631
      pz      :     0.058606  p :     0.139470
      px      :     0.056151
      py      :     0.024713


                      *****************************
                      * MAYER POPULATION ANALYSIS *
                      *****************************

  NA   - Mulliken gross atomic population
  ZA   - Total nuclear charge
  QA   - Mulliken gross atomic charge
  VA   - Mayer's total valence
  BVA  - Mayer's bonded valence
  FA   - Mayer's free valence

  ATOM       NA         ZA         QA         VA         BVA        FA
  0 C      6.2430     6.0000    -0.2430     3.9569     3.9569    -0.0000
  1 N      7.3035     7.0000    -0.3035     3.1089     3.1089    -0.0000
  2 H      0.8878     1.0000     0.1122     0.9672     0.9672     0.0000
  3 H      0.8859     1.0000     0.1141     0.9674     0.9674    -0.0000
  4 H      0.8887     1.0000     0.1113     0.9653     0.9653    -0.0000
  5 H      0.7173     1.0000     0.2827     1.0184     1.0184    -0.0000
  6 H      0.7321     1.0000     0.2679     1.0177     1.0177    -0.0000
  7 H      0.7328     1.0000     0.2672     1.0222     1.0222     0.0000
  8 Pb    20.8852    22.0000     1.1148     1.5413     1.5413     0.0000
  9 Cl    17.7131    17.0000    -0.7131     0.5194     0.5194    -0.0000
 10 Cl    17.7262    17.0000    -0.7262     0.4999     0.4999     0.0000
 11 Cl    17.7377    17.0000    -0.7377     0.4808     0.4808     0.0000
 12 Cl    17.7186    17.0000    -0.7186     0.5108     0.5108    -0.0000
 13 Cl    17.7120    17.0000    -0.7120     0.5237     0.5237     0.0000
 14 Cl    17.7340    17.0000    -0.7340     0.4862     0.4862     0.0000
 15 N      7.2869     7.0000    -0.2869     3.1319     3.1319     0.0000
 16 C      6.2442     6.0000    -0.2442     3.9444     3.9444     0.0000
 17 H      0.7389     1.0000     0.2611     1.0293     1.0293     0.0000
 18 H      0.7330     1.0000     0.2670     1.0233     1.0233    -0.0000
 19 H      0.8813     1.0000     0.1187     0.9661     0.9661    -0.0000
 20 H      0.8813     1.0000     0.1187     0.9667     0.9667     0.0000
 21 H      0.8838     1.0000     0.1162     0.9652     0.9652    -0.0000
 22 H      0.7326     1.0000     0.2674     1.0282     1.0282    -0.0000

  Mayer bond orders larger than 0.1
B(  0-C ,  1-N ) :   0.9590 B(  0-C ,  2-H ) :   0.9798 B(  0-C ,  3-H ) :   0.9794 
B(  0-C ,  4-H ) :   0.9791 B(  1-N ,  5-H ) :   0.7397 B(  1-N ,  6-H ) :   0.7746 
B(  1-N ,  7-H ) :   0.7735 B(  5-H , 11-Cl) :   0.2827 B(  6-H ,  9-Cl) :   0.2443 
B(  7-H , 10-Cl) :   0.2506 B(  8-Pb,  9-Cl) :   0.2865 B(  8-Pb, 10-Cl) :   0.2623 
B(  8-Pb, 11-Cl) :   0.2072 B(  8-Pb, 12-Cl) :   0.2728 B(  8-Pb, 13-Cl) :   0.2816 
B(  8-Pb, 14-Cl) :   0.2368 B( 12-Cl, 17-H ) :   0.2536 B( 13-Cl, 18-H ) :   0.2569 
B( 14-Cl, 22-H ) :   0.2649 B( 15-N , 16-C ) :   0.9561 B( 15-N , 17-H ) :   0.7780 
B( 15-N , 18-H ) :   0.7701 B( 15-N , 22-H ) :   0.7667 B( 16-C , 19-H ) :   0.9782 
B( 16-C , 20-H ) :   0.9782 B( 16-C , 21-H ) :   0.9787 

-------
TIMINGS
-------

Total SCF time: 0 days 0 hours 9 min 50 sec 

Total time                  ....     590.957 sec
Sum of individual times     ....     491.162 sec  ( 83.1%)

Fock matrix formation       ....     475.654 sec  ( 80.5%)
  Coulomb formation         ....     420.005 sec  ( 88.3% of F)
  Split-RI-J                ....      26.595 sec  (  5.6% of F)
  Chain of spheres X        ....     491.085 sec  (103.2% of F)
  XC integration            ....      55.757 sec  ( 11.7% of F)
    Basis function eval.    ....      18.537 sec  ( 33.2% of XC)
    Density eval.           ....      17.238 sec  ( 30.9% of XC)
    XC-Functional eval.     ....       3.385 sec  (  6.1% of XC)
    XC-Potential eval.      ....      15.284 sec  ( 27.4% of XC)
Diagonalization             ....       0.344 sec  (  0.1%)
Density matrix formation    ....       0.159 sec  (  0.0%)
Population analysis         ....       0.474 sec  (  0.1%)
Initial guess               ....       2.126 sec  (  0.4%)
Orbital Transformation      ....       0.000 sec  (  0.0%)
Orbital Orthonormalization  ....       2.107 sec  (  0.4%)
DIIS solution               ....       0.098 sec  (  0.0%)
SOSCF solution              ....       0.896 sec  (  0.2%)
Grid generation             ....      11.411 sec  (  1.9%)

------------------------------------------------------------------------------
                              ORCA MP2 CALCULATION
------------------------------------------------------------------------------


----------------------
RI-MP2 ENERGY+GRADIENT
----------------------
Dimension of the basis                    ...  468
Memory devoted to MP2                     ... 1000 MB   
Data format for buffers                   ... DOUBLE
Compression type for matrix containers    ... UNCOMPRESSED
Overall scaling of the MP2 energy         ...   2.700e-01 Eh
Calculating two index integrals           ... done (    0.026 sec)
Cholesky decomposition of the V-matrix    ... done
Cholesky decomposition of V**-1           ... done (    0.125 sec)

-----------------
RI-TRANSFORMATION (AUX index driven)
-----------------

Dimension of the orbital-basis         ... 468
Dimension of the aux-basis             ... 810
Transformation of internal MOs         ...    0-  81
Transformation of internal/external MOs...    0-  81 to   82- 467
Number Format for Storage              ... Double (8 Byte)
Integral mode                          ... Direct

First Phase: integral generation and transformation of MO indices
  Aux angular momentum 0               ... done (    2.949 sec)
  Aux angular momentum 1               ... done (    2.854 sec)
  Aux angular momentum 2               ... done (    3.571 sec)
  Aux angular momentum 3               ... done (    1.678 sec)
  Aux angular momentum 4               ... done (    1.664 sec)
Closing buffer VIJ ( 0.02 GB; CompressionRatio= 1.98)
Closing buffer VIA ( 0.19 GB; CompressionRatio= 1.00)
  Phase 1 completed in    12.841 sec
Second Phase: sorting and transformation of aux index

IJ-Transformation
Memory available                       ... 972 MB 
Max. # MO pairs treated in a batch     ... 82    
# of internal orbitals                 ... 82
# batches for internal orbitals        ... 1
Closing buffer IJV ( 0.02 GB; CompressionRatio= 1.00)
(ij|v) transformation done in     1.149 sec

IA-Transformation
Memory available                       ... 972 MB 
Max. # MO pairs treated in a batch     ... 82    
# of internal orbitals                 ... 82
# batches for internal orbitals        ... 1
Closing buffer IAV ( 0.19 GB; CompressionRatio= 1.00)
(ia|v) transformation done in     4.904 sec

  Phase 2 completed in     7.853 sec
RI-Integral transformation completed in    20.696 sec
Opening buffers                              ... done

Starting loop over batches of integrals:

Operator 0  - window                       ... (  0- 81)x( 82-467)
Operator 0  - Memory available             ...  1000 MB
Operator 0  - Memory needed per MO         ...   4.8 MB
Operator 0  - Number of orbitals per batch ... 82
Operator 0  - Number of batches            ... 1

OPERATOR  0   PASS   0:  MOs     0 ...   81
  Reading integrals       ... ok
  Internal MO   2
  Internal MO   5
  Internal MO   8
  Internal MO  11
  Internal MO  14
  Internal MO  17
  Internal MO  20
  Internal MO  23
  Internal MO  26
  Internal MO  29
  Internal MO  32
  Internal MO  35
  Internal MO  38
  Internal MO  41
  Internal MO  44
  Internal MO  47
  Internal MO  50
  Internal MO  53
  Internal MO  56
  Internal MO  59
  Internal MO  62
  Internal MO  65
  Internal MO  68
  Internal MO  71
  Internal MO  74
  Internal MO  77
  Internal MO  80
Closing buffer GIPV ( 0.23 GB; CompressionRatio= 1.00)
Time spent in pair loops =  1161.143 sec

-----------------------------------------------
 RI-MP2 CORRELATION ENERGY:     -1.013596373 Eh
-----------------------------------------------


---------------------
MP2 DENSITY FORMATION
---------------------

Completing the external part of the density      ... done
Storing the unrelaxed density                    ... done

Calculating the xc-kernel                        ... done
Calculating G(D)                                 ... done
Completing the Lagrangian                        ... done
Solving the Z-vector equations                   ... 

------------------------------------------------------------------------------
                           ORCA CP-SCF CALCULATION
------------------------------------------------------------------------------

Input orbitals are from        ... PbCl6NH3CH3-2_mp2_sp_9.orca.gbw
Input Perturbation             ... PbCl6NH3CH3-2_mp2_sp_9.orca.pin.tmp
Wavefunction output            ... PbCl6NH3CH3-2_mp2_sp_9.orca.pout.tmp
Perturbation mode              ... Real perturbation
Solver                         ... POPLE
Max. number of iterations      ... 128
Convergence tolerance          ... 1.000e-08
Integral handling              ... Direct
[...]
      pz      :     0.008377  p :     0.021753
      px      :     0.007809
      py      :     0.005566
 22 H s       :     0.696177  s :     0.696177
      pz      :     0.019029  p :     0.045111
      px      :     0.018496
      py      :     0.007586


                     *******************************
                     * LOEWDIN POPULATION ANALYSIS *
                     *******************************

----------------------
LOEWDIN ATOMIC CHARGES
----------------------
   0 C :   -0.341810
   1 N :    0.030049
   2 H :    0.111467
   3 H :    0.112067
   4 H :    0.110553
   5 H :    0.116001
   6 H :    0.134949
   7 H :    0.135888
   8 Pb:    0.148556
   9 Cl:   -0.469973
  10 Cl:   -0.510734
  11 Cl:   -0.524980
  12 Cl:   -0.499377
  13 Cl:   -0.485751
  14 Cl:   -0.536030
  15 N :    0.040568
  16 C :   -0.335498
  17 H :    0.145064
  18 H :    0.138873
  19 H :    0.113728
  20 H :    0.113850
  21 H :    0.112697
  22 H :    0.139843

-------------------------------
LOEWDIN REDUCED ORBITAL CHARGES
-------------------------------
  0 C s       :     2.850000  s :     2.850000
      pz      :     1.051825  p :     3.108626
      px      :     1.043402
      py      :     1.013400
      dz2     :     0.033972  d :     0.342069
      dxz     :     0.086130
      dyz     :     0.085193
      dx2y2   :     0.047495
      dxy     :     0.089279
      f0      :     0.004850  f :     0.041114
      f+1     :     0.004554
      f-1     :     0.006914
      f+2     :     0.004298
      f-2     :     0.007225
      f+3     :     0.005934
      f-3     :     0.007339
  1 N s       :     3.021350  s :     3.021350
      pz      :     1.266260  p :     3.770460
      px      :     1.259134
      py      :     1.245067
      dz2     :     0.016631  d :     0.166940
      dxz     :     0.042637
      dyz     :     0.041350
      dx2y2   :     0.023577
      dxy     :     0.042745
      f0      :     0.001429  f :     0.011201
      f+1     :     0.001294
      f-1     :     0.001641
      f+2     :     0.001169
      f-2     :     0.002280
      f+3     :     0.001551
      f-3     :     0.001836
  2 H s       :     0.826575  s :     0.826575
      pz      :     0.023212  p :     0.061958
      px      :     0.021693
      py      :     0.017053
  3 H s       :     0.825908  s :     0.825908
      pz      :     0.018725  p :     0.062025
      px      :     0.021859
      py      :     0.021442
  4 H s       :     0.827425  s :     0.827425
      pz      :     0.023363  p :     0.062023
      px      :     0.019828
      py      :     0.018833
  5 H s       :     0.721847  s :     0.721847
      pz      :     0.047666  p :     0.162153
      px      :     0.056642
      py      :     0.057844
  6 H s       :     0.721878  s :     0.721878
      pz      :     0.045541  p :     0.143173
      px      :     0.037122
      py      :     0.060510
  7 H s       :     0.722047  s :     0.722047
      pz      :     0.059364  p :     0.142064
      px      :     0.057366
      py      :     0.025334
  8 Pbs       :     3.910713  s :     3.910713
      pz      :     2.409142  p :     7.269351
      px      :     2.444775
      py      :     2.415434
      dz2     :     2.197309  d :    10.565980
      dxz     :     2.048532
      dyz     :     2.052400
      dx2y2   :     2.217839
      dxy     :     2.049900
      f0      :     0.020571  f :     0.105400
      f+1     :     0.015468
      f-1     :     0.015316
      f+2     :     0.010601
      f-2     :     0.005695
      f+3     :     0.019049
      f-3     :     0.018700
  9 Cls       :     5.838215  s :     5.838215
      pz      :     3.896451  p :    11.573115
      px      :     3.809531
      py      :     3.867133
      dz2     :     0.009996  d :     0.055223
      dxz     :     0.008758
      dyz     :     0.012375
      dx2y2   :     0.014782
      dxy     :     0.009312
      f0      :     0.000440  f :     0.003420
      f+1     :     0.000485
      f-1     :     0.000461
      f+2     :     0.000558
      f-2     :     0.000466
      f+3     :     0.000572
      f-3     :     0.000438
 10 Cls       :     5.856294  s :     5.856294
      pz      :     3.893911  p :    11.599234
      px      :     3.887753
      py      :     3.817570
      dz2     :     0.009590  d :     0.051955
      dxz     :     0.012688
      dyz     :     0.008499
      dx2y2   :     0.012676
      dxy     :     0.008502
      f0      :     0.000409  f :     0.003251
      f+1     :     0.000536
      f-1     :     0.000432
      f+2     :     0.000577
      f-2     :     0.000401
      f+3     :     0.000423
      f-3     :     0.000473
 11 Cls       :     5.858106  s :     5.858106
      pz      :     3.841812  p :    11.609342
      px      :     3.893415
      py      :     3.874116
      dz2     :     0.011908  d :     0.053984
      dxz     :     0.009909
      dyz     :     0.010473
      dx2y2   :     0.008383
      dxy     :     0.013311
      f0      :     0.000596  f :     0.003548
      f+1     :     0.000404
      f-1     :     0.000422
      f+2     :     0.000387
      f-2     :     0.000671
      f+3     :     0.000561
      f-3     :     0.000508
 12 Cls       :     5.851042  s :     5.851042
      pz      :     3.903612  p :    11.592634
      px      :     3.815353
      py      :     3.873668
      dz2     :     0.009725  d :     0.052494
      dxz     :     0.008554
      dyz     :     0.011221
      dx2y2   :     0.014088
      dxy     :     0.008906
      f0      :     0.000422  f :     0.003207
      f+1     :     0.000467
      f-1     :     0.000427
      f+2     :     0.000500
      f-2     :     0.000433
      f+3     :     0.000545
      f-3     :     0.000415
 13 Cls       :     5.847490  s :     5.847490
      pz      :     3.810485  p :    11.581824
      px      :     3.895585
      py      :     3.875755
      dz2     :     0.014576  d :     0.053140
      dxz     :     0.009002
      dyz     :     0.009445
      dx2y2   :     0.008330
      dxy     :     0.011787
      f0      :     0.000626  f :     0.003296
      f+1     :     0.000414
      f-1     :     0.000434
      f+2     :     0.000383
      f-2     :     0.000491
      f+3     :     0.000500
      f-3     :     0.000448
 14 Cls       :     5.865087  s :     5.865087
      pz      :     3.894567  p :    11.616979
      px      :     3.888862
      py      :     3.833551
      dz2     :     0.009419  d :     0.050791
      dxz     :     0.012215
      dyz     :     0.008531
      dx2y2   :     0.012159
      dxy     :     0.008467
      f0      :     0.000405  f :     0.003173
      f+1     :     0.000513
      f-1     :     0.000425
      f+2     :     0.000544
      f-2     :     0.000410
      f+3     :     0.000411
      f-3     :     0.000464
 15 N s       :     3.019192  s :     3.019192
      pz      :     1.262178  p :     3.762967
      px      :     1.257755
      py      :     1.243033
      dz2     :     0.016541  d :     0.166210
      dxz     :     0.042187
      dyz     :     0.041091
      dx2y2   :     0.023834
      dxy     :     0.042557
      f0      :     0.001396  f :     0.011063
      f+1     :     0.001280
      f-1     :     0.001677
      f+2     :     0.001167
      f-2     :     0.002142
      f+3     :     0.001538
      f-3     :     0.001863
 16 C s       :     2.850027  s :     2.850027
      pz      :     1.053282  p :     3.106449
      px      :     1.044164
      py      :     1.009003
      dz2     :     0.032798  d :     0.338059
      dxz     :     0.085424
      dyz     :     0.084126
      dx2y2   :     0.047450
      dxy     :     0.088260
      f0      :     0.004777  f :     0.040963
      f+1     :     0.004389
      f-1     :     0.006924
      f+2     :     0.004275
      f-2     :     0.007211
      f+3     :     0.005925
      f-3     :     0.007462
 17 H s       :     0.719993  s :     0.719993
      pz      :     0.042042  p :     0.134944
      px      :     0.036327
      py      :     0.056575
 18 H s       :     0.719979  s :     0.719979
      pz      :     0.041735  p :     0.141148
      px      :     0.049034
      py      :     0.050379
 19 H s       :     0.824106  s :     0.824106
      pz      :     0.023591  p :     0.062165
      px      :     0.019818
      py      :     0.018757
 20 H s       :     0.823999  s :     0.823999
      pz      :     0.018503  p :     0.062151
      px      :     0.022075
      py      :     0.021574
 21 H s       :     0.825241  s :     0.825241
      pz      :     0.023517  p :     0.062062
      px      :     0.021905
      py      :     0.016641
 22 H s       :     0.719539  s :     0.719539
      pz      :     0.058930  p :     0.140618
      px      :     0.056468
      py      :     0.025221


                      *****************************
                      * MAYER POPULATION ANALYSIS *
                      *****************************

  NA   - Mulliken gross atomic population
  ZA   - Total nuclear charge
  QA   - Mulliken gross atomic charge
  VA   - Mayer's total valence
  BVA  - Mayer's bonded valence
  FA   - Mayer's free valence

  ATOM       NA         ZA         QA         VA         BVA        FA
  0 C      6.2692     6.0000    -0.2692     4.0046     3.8864     0.1181
  1 N      7.2958     7.0000    -0.2958     3.1937     3.0461     0.1476
  2 H      0.8832     1.0000     0.1168     0.9699     0.9501     0.0199
  3 H      0.8814     1.0000     0.1186     0.9701     0.9503     0.0198
  4 H      0.8841     1.0000     0.1159     0.9680     0.9481     0.0199
  5 H      0.7263     1.0000     0.2737     1.0258     1.0043     0.0215
  6 H      0.7414     1.0000     0.2586     1.0261     1.0040     0.0221
  7 H      0.7418     1.0000     0.2582     1.0303     1.0082     0.0221
  8 Pb    20.9719    22.0000     1.0281     1.9852     1.6228     0.3624
  9 Cl    17.6875    17.0000    -0.6875     0.8039     0.5457     0.2581
 10 Cl    17.7009    17.0000    -0.7009     0.7837     0.5261     0.2576
 11 Cl    17.7139    17.0000    -0.7139     0.7618     0.5060     0.2559
 12 Cl    17.6931    17.0000    -0.6931     0.7949     0.5372     0.2578
 13 Cl    17.6863    17.0000    -0.6863     0.8074     0.5496     0.2578
 14 Cl    17.7095    17.0000    -0.7095     0.7685     0.5119     0.2566
 15 N      7.2786     7.0000    -0.2786     3.2128     3.0669     0.1459
 16 C      6.2702     6.0000    -0.2702     3.9925     3.8750     0.1175
 17 H      0.7484     1.0000     0.2516     1.0381     1.0156     0.0224
 18 H      0.7423     1.0000     0.2577     1.0317     1.0096     0.0221
 19 H      0.8768     1.0000     0.1232     0.9687     0.9490     0.0197
 20 H      0.8768     1.0000     0.1232     0.9693     0.9496     0.0197
 21 H      0.8793     1.0000     0.1207     0.9678     0.9481     0.0197
 22 H      0.7413     1.0000     0.2587     1.0360     1.0138     0.0222

  Mayer bond orders larger than 0.1
B(  0-C ,  1-N ) :   0.9413 B(  0-C ,  2-H ) :   0.9610 B(  0-C ,  3-H ) :   0.9605 
B(  0-C ,  4-H ) :   0.9602 B(  1-N ,  5-H ) :   0.7215 B(  1-N ,  6-H ) :   0.7550 
B(  1-N ,  7-H ) :   0.7539 B(  5-H , 11-Cl) :   0.2870 B(  6-H ,  9-Cl) :   0.2503 
B(  7-H , 10-Cl) :   0.2562 B(  8-Pb,  9-Cl) :   0.2992 B(  8-Pb, 10-Cl) :   0.2753 
B(  8-Pb, 11-Cl) :   0.2192 B(  8-Pb, 12-Cl) :   0.2858 B(  8-Pb, 13-Cl) :   0.2943 
B(  8-Pb, 14-Cl) :   0.2496 B( 12-Cl, 17-H ) :   0.2598 B( 13-Cl, 18-H ) :   0.2627 
B( 14-Cl, 22-H ) :   0.2701 B( 15-N , 16-C ) :   0.9387 B( 15-N , 17-H ) :   0.7583 
B( 15-N , 18-H ) :   0.7507 B( 15-N , 22-H ) :   0.7472 B( 16-C , 19-H ) :   0.9595 
B( 16-C , 20-H ) :   0.9596 B( 16-C , 21-H ) :   0.9600 


-------
TIMINGS
-------

Total time                : 2207.693 sec
Integral trafo            :   20.707 sec (  0.9%)
I/O of integrals          :    1.057 sec (  0.0%)
K(i,j) Operators          :  176.879 sec (  8.0%)
T(i,j) pair energies      :   20.529 sec (  0.9%)
V-calculation             :    0.026 sec (  0.0%)
V**(-1/2)                 :    0.125 sec (  0.0%)
Gamma(ia|P)               :  170.501 sec (  7.7%)
Gamma-Trafo               :   11.629 sec (  0.5%)
D(virtual)                :   82.941 sec (  3.8%)
D(internal)               :  154.889 sec (  7.0%)
W(virtual)                :  166.243 sec (  7.5%)
W(internal)               :  317.628 sec ( 14.4%)
L(virtual)                :   51.591 sec (  2.3%)
L(internal)               :    2.472 sec (  0.1%)
G(D)                      :   54.470 sec (  2.5%)
G(Z)                      :   55.296 sec (  2.5%)
Z-Vector Solution         :  442.181 sec ( 20.0%)
Z-Vector Solution         :  442.181 sec ( 20.0%)
3-Index Derivative 
+ Separable RIJ part      :   24.382 sec (  1.1%)
2-Index Derivative 
+ Separable RIJ part      :    0.170 sec (  0.0%)
Separable Gradient (COSX) :  442.927 sec ( 20.1%)


---------------------------------------
MP2 TOTAL ENERGY:    -3146.563167187 Eh
---------------------------------------

The final MP2 gradient
  0:  -0.00004739  -0.00009973   0.00035537
  1:  -0.00286480  -0.00066172   0.00946837
  2:   0.00325871  -0.00189991   0.00314245
  3:  -0.00274027   0.00329980   0.00247625
  4:   0.00247247   0.00226745  -0.00314723
  5:  -0.00154062  -0.00185966   0.00022601
  6:   0.00528916  -0.00645212  -0.00466003
  7:  -0.00461857   0.00252200  -0.00533210
  8:   0.00001475  -0.00389140  -0.00053496
  9:   0.00136545   0.00030515   0.00052664
 10:  -0.00209266   0.00432462  -0.00093058
 11:   0.00246686   0.00375451   0.00075607
 12:  -0.00313525   0.00458013   0.00323146
 13:   0.00142775   0.00202020  -0.00425609
 14:   0.00406806  -0.00380029   0.00370078
 15:  -0.00268859  -0.00809707  -0.00605189
 16:   0.00102633   0.00128800   0.00077394
 17:  -0.00473470   0.00443629   0.00374870
 18:   0.00379216   0.00313949  -0.00408727
 19:  -0.00299526  -0.00280445   0.00306065
 20:   0.00276072  -0.00345895  -0.00281523
 21:  -0.00334023   0.00180198  -0.00349958
 22:   0.00285752  -0.00081672   0.00375352

-----------------------------------
NORM OF THE MP2 GRADIENT:  0.028411
-----------------------------------

Entering the calculation of the dispersion correction...

Checking the input atom types...

Done


-------------------------------------------------------------------------------
                          DFT DISPERSION CORRECTION                            
                                                                               
                                DFTD3 V2.1  Rev 6                               
                          USING Becke-Johnson damping                          
-------------------------------------------------------------------------------
The B2PLYP functional is recognized
Active option DFTDOPT                   ...         4   

molecular C6(AA) [au] = 13718.752147 


            DFT-D V3
 parameters
 s6 scaling factor         :     0.6400 
 a1 scaling factor         :     0.3065 
 s8 scaling factor         :     0.9147 
 a2 scaling factor         :     5.0570 
 ad hoc parameters k1-k3   :    16.0000     1.3333    -4.0000 

 Edisp/kcal,au: -17.404705187642  -0.027736160250 
 E6   /kcal   :  -8.194743658 
 E8   /kcal   :  -9.209961529 
 % E8         :  52.916504073 

-------------------------   ----------------
Dispersion correction           -0.027736160
-------------------------   ----------------


-------------------------   --------------------
FINAL SINGLE POINT ENERGY     -3146.590903347229
-------------------------   --------------------


                            ***************************************
                            *     ORCA property calculations      *
                            ***************************************


  WARNING: The energy has been calculated at the MP2 level but the densities
           used in the property calculations are still SCF densities
           MP2 response densities have not been calculated 
           use %mp2 Density relaxed end
           or  %mp2 Density unrelaxed end

                                    ---------------------
                                    Active property flags
                                    ---------------------
   (+) Dipole Moment


------------------------------------------------------------------------------
                       ORCA ELECTRIC PROPERTIES CALCULATION
------------------------------------------------------------------------------

Dipole Moment Calculation                       ... on
Quadrupole Moment Calculation                   ... off
Polarizability Calculation                      ... off
GBWName                                         ... PbCl6NH3CH3-2_mp2_sp_9.orca.gbw
Electron density file                           ... PbCl6NH3CH3-2_mp2_sp_9.orca.scfp.tmp

-------------
DIPOLE MOMENT
-------------
                                X             Y             Z
Electronic contribution:      0.56871      -3.99843      -3.59257
Nuclear contribution   :     -0.62372       3.73092       3.14097
                        -----------------------------------------
Total Dipole Moment    :     -0.05501      -0.26752      -0.45161
                        -----------------------------------------
Magnitude (a.u.)       :      0.52777
Magnitude (Debye)      :      1.34148


                         *** MP2 UNRELAXED DENSITY ***

------------------------------------------------------------------------------
                       ORCA ELECTRIC PROPERTIES CALCULATION
------------------------------------------------------------------------------

Dipole Moment Calculation                       ... on
Quadrupole Moment Calculation                   ... off
Polarizability Calculation                      ... off
GBWName                                         ... PbCl6NH3CH3-2_mp2_sp_9.orca.gbw
Electron density file                           ... PbCl6NH3CH3-2_mp2_sp_9.orca.pmp2ur

-------------
DIPOLE MOMENT
-------------
                                X             Y             Z
Electronic contribution:      0.56852      -3.99639      -3.59345
Nuclear contribution   :     -0.62372       3.73092       3.14097
                        -----------------------------------------
Total Dipole Moment    :     -0.05520      -0.26548      -0.45249
                        -----------------------------------------
Magnitude (a.u.)       :      0.52751
Magnitude (Debye)      :      1.34083


                           *** MP2 RELAXED DENSITY ***

------------------------------------------------------------------------------
                       ORCA ELECTRIC PROPERTIES CALCULATION
------------------------------------------------------------------------------

Dipole Moment Calculation                       ... on
Quadrupole Moment Calculation                   ... off
Polarizability Calculation                      ... off
GBWName                                         ... PbCl6NH3CH3-2_mp2_sp_9.orca.gbw
Electron density file                           ... PbCl6NH3CH3-2_mp2_sp_9.orca.pmp2re

-------------
DIPOLE MOMENT
-------------
                                X             Y             Z
Electronic contribution:      0.56708      -3.99222      -3.58919
Nuclear contribution   :     -0.62372       3.73092       3.14097
                        -----------------------------------------
Total Dipole Moment    :     -0.05664      -0.26130      -0.44822
                        -----------------------------------------
Magnitude (a.u.)       :      0.52191
Magnitude (Debye)      :      1.32659


Timings for individual modules:

Sum of individual times         ...     2808.805 sec (=  46.813 min)
GTO integral calculation        ...        4.470 sec (=   0.075 min)   0.2 %
SCF iterations                  ...      595.255 sec (=   9.921 min)  21.2 %
MP2 module                      ...     2209.080 sec (=  36.818 min)  78.6 %
                             ****ORCA TERMINATED NORMALLY****
TOTAL RUN TIME: 0 days 0 hours 46 minutes 50 seconds 523 msec
