
                                 *****************
                                 * O   R   C   A *
                                 *****************

           --- An Ab Initio, DFT and Semiempirical electronic structure package ---

                  #######################################################
                  #                        -***-                        #
                  #  Department of molecular theory and spectroscopy    #
                  #              Directorship: Frank Neese              #
                  # Max Planck Institute for Chemical Energy Conversion #
                  #                  D-45470 Muelheim/Ruhr              #
                  #                       Germany                       #
                  #                                                     #
                  #                  All rights reserved                #
                  #                        -***-                        #
                  #######################################################


                         Program Version 3.0.3 - RELEASE   -


 With contributions from (in alphabetic order):
   Ute Becker             : Parallelization
   Dmytro Bykov           : SCF Hessian
   Dmitry Ganyushin       : Spin-Orbit,Spin-Spin,Magnetic field MRCI
   Andreas Hansen         : Spin unrestricted coupled pair/coupled cluster methods
   Dimitrios Liakos       : Extrapolation schemes; parallel MDCI
   Robert Izsak           : Overlap fitted RIJCOSX, COSX-SCS-MP3
   Christian Kollmar      : KDIIS, OOCD, Brueckner-CCSD(T), CCSD density
   Simone Kossmann        : Meta GGA functionals, TD-DFT gradient, OOMP2, MP2 Hessian
   Taras Petrenko         : DFT Hessian,TD-DFT gradient, ASA and ECA modules, normal mode analysis, Resonance Raman, ABS, FL, XAS/XES, NRVS
   Christoph Reimann      : Effective Core Potentials
   Michael Roemelt        : Restricted open shell CIS
   Christoph Riplinger    : Improved optimizer, TS searches, QM/MM, DLPNO-CCSD
   Barbara Sandhoefer     : DKH picture change effects
   Igor Schapiro          : Molecular dynamics
   Kantharuban Sivalingam : CASSCF convergence, NEVPT2
   Boris Wezisla          : Elementary symmetry handling
   Frank Wennmohs         : Technical directorship


 We gratefully acknowledge several colleagues who have allowed us to
 interface, adapt or use parts of their codes:
   Stefan Grimme, W. Hujo, H. Kruse, T. Risthaus : VdW corrections, initial TS optimization,
                                                   DFT functionals, gCP
   Ed Valeev                                     : LibInt (2-el integral package), F12 methods
   Garnet Chan, S. Sharma, R. Olivares           : DMRG
   Ulf Ekstrom                                   : XCFun DFT Library
   Mihaly Kallay                                 : mrcc  (arbitrary order and MRCC methods)
   Andreas Klamt, Michael Diedenhofen            : otool_cosmo (COSMO solvation model)
   Frank Weinhold                                : gennbo (NPA and NBO analysis)
   Christopher J. Cramer and Donald G. Truhlar   : smd solvation model


 Your calculation uses the libint2 library for the computation of 2-el integrals
 For citations please refer to: http://libint.valeyev.net

 This ORCA versions uses:
   CBLAS   interface :  Fast vector & matrix operations
   LAPACKE interface :  Fast linear algebra routines
   SCALAPACK package :  Parallel linear algebra routines


Your calculation utilizes the basis: Ahlrichs-TZV
Cite in your paper:
H - Kr: A. Schaefer, H. Horn and R. Ahlrichs, J. Chem. Phys. 97, 2571 (1992).

The def2-TZV basis will be loaded
Cite in your paper:
 	F. Weigend, R. Ahlrichs, Phys. Chem. Chem. Phys. 2005, 7, 3297.

Your calculation utilizes the atom-pairwise dispersion correction
with the Becke-Johnson damping scheme (D3BJ)
Cite in your paper:
S.Grimme, S.Ehrlich, L.Goerigk, J Comput Chem, (2011), 32, 1456–1465 
S.Grimme, J.Antony, S.Ehrlich and H.Krieg, J.Chem.Phys., 132, (2010), 154104 
   

================================================================================
                                        WARNINGS
                       Please study these warnings very carefully!
================================================================================

WARNING: The RI method has been chosen with no auxiliary basis (AUX or GTOAUX in BASIS block)
        Standard TZV/J expansion basis used (GTOAUX=TZV_J)

Now building the actual basis set
cite the ECPs for Pb [SD(60,MDF)] as follows:
  B. Metz, H. Stoll, M. Dolg, J. Chem. Phys. 113, 2563 (2000).

ECP parameters for Pb [SD(60,MDF)] have been obtained from:
  pseudopotential library of the Stuttgart/Cologne group
  http://www.theochem.uni-stuttgart.de/pseudopotentials/

cite the ECP basis sets for Pb [DEF2-TZVP] as follows:
  F. Weigend, R. Ahlrichs; Phys. Chem. Chem. Phys. 7, 3297(2005).

ECP basis sets for Pb [DEF2-TZVP] have been obtained from:
  Turbomole basis set library
  ftp://ftp.chemie.uni-karlsruhe.de/pub/basen/



INFO   : the flag for use of LIBINT has been found!

================================================================================
                                       INPUT FILE
================================================================================
NAME = Pb2Cl11_6NH3CH3_-1_mp2_sp2_7.orca
|  1> ! RIJCOSX RI-B2PLYP D3BJ def2-TZVP ECP{def2-TZVP} TIGHTSCF Grid5 FinalGrid6 MORead
|  2> %maxcore 4000
|  3> %moinp "previous.gbw"
|  4> *xyz -1 1
|  5> C 3.321334 3.304660 2.430157 
|  6> N 2.356571 2.328752 1.891132 
|  7> H 3.929482 2.825089 3.202898 
|  8> H 2.779051 4.148026 2.867131 
|  9> H 3.970752 3.667461 1.628343 
| 10> H 1.712427 1.919960 2.626954 
| 11> H 2.798301 1.476145 1.466883 
| 12> H 1.726191 2.717573 1.143366 
| 13> Pb 0.071873 -0.179482 0.732645 
| 14> Cl 2.812025 -0.576777 0.778875 
| 15> Cl 0.303503 2.899346 -0.212104 
| 16> Cl 0.297156 0.686917 3.486322 
| 17> Cl -3.298293 -0.218637 0.007460 
| 18> Cl -0.045154 -1.139038 -2.136629 
| 19> Cl -0.640529 -2.738224 1.880352 
| 20> N -2.185808 -3.054212 -0.959335 
| 21> C -3.018599 -3.892984 -1.852407 
| 22> H -2.697680 -2.199715 -0.614166 
| 23> H -1.345672 -2.675212 -1.453465 
| 24> H -3.863008 -4.284793 -1.282203 
| 25> H -2.403708 -4.719219 -2.215644 
| 26> H -3.366846 -3.277457 -2.686457 
| 27> H -1.855008 -3.591944 -0.148281 
| 28> Cl 3.324615 -4.750586 1.539247 
| 29> Cl 0.972185 -5.240639 4.905830 
| 30> Pb 0.296176 -5.399045 1.518559 
| 31> N 2.161285 -2.658962 3.515767 
| 32> C 3.006676 -1.740565 4.311813 
| 33> H 2.698023 -3.156655 2.770259 
| 34> H 1.390718 -2.163400 3.045648 
| 35> H 3.799912 -2.319606 4.793333 
| 36> H 2.384520 -1.246095 5.060700 
| 37> H 3.427402 -0.991699 3.638613 
| 38> H 1.731703 -3.427574 4.095222 
| 39> Cl 0.420440 -5.392505 -1.331922 
| 40> H -2.444419 -8.567556 -2.232135 
| 41> H -0.598109 -7.323819 -1.165277 
| 42> H -1.004862 -9.612620 -2.073837 
| 43> C -1.775778 -9.065444 -1.523604 
| 44> N -1.147567 -8.055720 -0.651573 
| 45> Cl -2.561504 -5.927982 1.060071 
| 46> H -1.842497 -7.478800 -0.094428 
| 47> H -0.483324 -8.457680 0.056334 
| 48> H -2.352281 -9.766255 -0.913124 
| 49> Cl 0.955681 -8.572009 1.646524 
| 50> H -3.020852 1.137851 -3.759427 
| 51> H -2.443836 0.935457 -1.388789 
| 52> C -2.421148 1.915242 -3.276964 
| 53> H -3.072919 2.741318 -2.978333 
| 54> N -1.760461 1.345922 -2.088558 
| 55> H -1.130632 0.530708 -2.323343 
| 56> H -1.666594 2.281032 -3.979276 
| 57> H -1.165922 2.035435 -1.571092 
| 58> H 3.622704 -8.508951 4.939340 
| 59> H 2.344608 -7.817453 2.937850 
| 60> C 4.032137 -7.791101 4.222778 
| 61> H 4.696529 -8.309487 3.525223 
| 62> N 2.932785 -7.146076 3.481813 
| 63> H 2.277052 -6.592786 4.110347 
| 64> H 4.597499 -7.025510 4.762093 
| 65> H 3.269849 -6.425562 2.787786 
| 66> *
| 67> 
| 68>                          ****END OF INPUT****
================================================================================

                       ****************************
                       * Single Point Calculation *
                       ****************************

---------------------------------
CARTESIAN COORDINATES (ANGSTROEM)
---------------------------------
  C      3.321334    3.304660    2.430157
  N      2.356571    2.328752    1.891132
  H      3.929482    2.825089    3.202898
  H      2.779051    4.148026    2.867131
  H      3.970752    3.667461    1.628343
  H      1.712427    1.919960    2.626954
  H      2.798301    1.476145    1.466883
  H      1.726191    2.717573    1.143366
  Pb     0.071873   -0.179482    0.732645
  Cl     2.812025   -0.576777    0.778875
  Cl     0.303503    2.899346   -0.212104
  Cl     0.297156    0.686917    3.486322
  Cl    -3.298293   -0.218637    0.007460
  Cl    -0.045154   -1.139038   -2.136629
  Cl    -0.640529   -2.738224    1.880352
  N     -2.185808   -3.054212   -0.959335
  C     -3.018599   -3.892984   -1.852407
  H     -2.697680   -2.199715   -0.614166
  H     -1.345672   -2.675212   -1.453465
  H     -3.863008   -4.284793   -1.282203
  H     -2.403708   -4.719219   -2.215644
  H     -3.366846   -3.277457   -2.686457
  H     -1.855008   -3.591944   -0.148281
  Cl     3.324615   -4.750586    1.539247
  Cl     0.972185   -5.240639    4.905830
  Pb     0.296176   -5.399045    1.518559
  N      2.161285   -2.658962    3.515767
  C      3.006676   -1.740565    4.311813
  H      2.698023   -3.156655    2.770259
  H      1.390718   -2.163400    3.045648
  H      3.799912   -2.319606    4.793333
  H      2.384520   -1.246095    5.060700
  H      3.427402   -0.991699    3.638613
  H      1.731703   -3.427574    4.095222
  Cl     0.420440   -5.392505   -1.331922
  H     -2.444419   -8.567556   -2.232135
  H     -0.598109   -7.323819   -1.165277
  H     -1.004862   -9.612620   -2.073837
  C     -1.775778   -9.065444   -1.523604
  N     -1.147567   -8.055720   -0.651573
  Cl    -2.561504   -5.927982    1.060071
  H     -1.842497   -7.478800   -0.094428
  H     -0.483324   -8.457680    0.056334
  H     -2.352281   -9.766255   -0.913124
  Cl     0.955681   -8.572009    1.646524
  H     -3.020852    1.137851   -3.759427
  H     -2.443836    0.935457   -1.388789
  C     -2.421148    1.915242   -3.276964
  H     -3.072919    2.741318   -2.978333
  N     -1.760461    1.345922   -2.088558
  H     -1.130632    0.530708   -2.323343
  H     -1.666594    2.281032   -3.979276
  H     -1.165922    2.035435   -1.571092
  H      3.622704   -8.508951    4.939340
  H      2.344608   -7.817453    2.937850
  C      4.032137   -7.791101    4.222778
  H      4.696529   -8.309487    3.525223
  N      2.932785   -7.146076    3.481813
  H      2.277052   -6.592786    4.110347
  H      4.597499   -7.025510    4.762093
  H      3.269849   -6.425562    2.787786

----------------------------
CARTESIAN COORDINATES (A.U.)
----------------------------
  NO LB      ZA    FRAG    MASS        X           Y           Z
   0 C     6.0000    0    12.011          6.276411659281206          6.244902365724204          4.592331192431667
   1 N     7.0000    0    14.007          4.453273805140938          4.400703513821383          3.573721563094765
   2 H     1.0000    0     1.008          7.425644828173148          5.338644513953455          6.052600054884109
   3 H     1.0000    0     1.008          5.251645302199988          7.838633136384834          5.418092380075772
   4 H     1.0000    0     1.008          7.503633825720078          6.930496896836967          3.077122322087733
   5 H     1.0000    0     1.008          3.236018054332367          3.628198588083447          4.964223626408968
   6 H     1.0000    0     1.008          5.288022530277972          2.789509783957186          2.772007140504807
   7 H     1.0000    0     1.008          3.262028244839660          5.135468718938777          2.160648610837006
   8 Pb   22.0000*   0   207.200  0.135820286423322  -0.339171825968454  1.384498403386735
   9 Cl   17.0000    0    35.453          5.313957131739908         -1.089950570344698          1.471860442557915
  10 Cl   17.0000    0    35.453          0.573537550823502          5.478969907480045         -0.400818471909233
  11 Cl   17.0000    0    35.453          0.561543459051503          1.298085006734784          6.588193794664606
  12 Cl   17.0000    0    35.453         -6.232870479429527         -0.413164052742141          0.014097356959053
  13 Cl   17.0000    0    35.453         -0.085328693851080         -2.152469876129395         -4.037643659794030
  14 Cl   17.0000    0    35.453         -1.210424390834445         -5.174493453330386          3.553350315371093
  15 N     7.0000    0    14.007         -4.130578501334144         -5.771624234935894         -1.812880420685344
  16 C     6.0000    0    12.011         -5.704325418128557         -7.356673603737290         -3.500541918558664
  17 H     1.0000    0     1.008         -5.097876396956682         -4.156858922678586         -1.160605540765880
  18 H     1.0000    0     1.008         -2.542951546086079         -5.055418030179740         -2.746650795239852
  19 H     1.0000    0     1.008         -7.300027173146867         -8.097085310542841         -2.423012518092230
  20 H     1.0000    0     1.008         -4.542349825915584         -8.918031475997715         -4.186960370265818
  21 H     1.0000    0     1.008         -6.362416875088230         -6.193496145703143         -5.076668000555684
  22 H     1.0000    0     1.008         -3.505457096232993         -6.787790448381636         -0.280210480863977
  23 Cl   17.0000    0    35.453          6.282611850726602         -8.977306515640423          2.908755282459885
  24 Cl   17.0000    0    35.453          1.837163401506232         -9.903372476746934          9.270675159574894
  25 Pb   22.0000*   0   207.200  0.559691527440261  -10.202716434716864  2.869660628201322
  26 N     7.0000    0    14.007          4.084236747351992         -5.024709980503519          6.643836780677917
  27 C     6.0000    0    12.011          5.681794213433814         -3.289191168288643          8.148145710681394
  28 H     1.0000    0     1.008          5.098524573020617         -5.965213449273189          5.235030830030552
  29 H     1.0000    0     1.008          2.628076149514695         -4.088233518125236          5.755440620324992
  30 H     1.0000    0     1.008          7.180793013000971         -4.383420078600539          9.058086638687154
  31 H     1.0000    0     1.008          4.506089760857903         -2.354778286848602          9.563337045935278
  32 H     1.0000    0     1.008          6.476851130853966         -1.874039517283571          6.875982077325607
  33 H     1.0000    0     1.008          3.272444415289833         -6.477176163749000          7.738848037609255
  34 Cl   17.0000    0    35.453          0.794516455745851        -10.190357625801019         -2.516967811744661
  35 H     1.0000    0     1.008         -4.619282466553652        -16.190334477033822         -4.218123843940313
  36 H     1.0000    0     1.008         -1.130262208233506        -13.840012164409009         -2.202054400157354
  37 H     1.0000    0     1.008         -1.898913982384377        -18.165219229454102         -3.918983976392847
  38 C     6.0000    0    12.011         -3.355734094642413        -17.131206442399606         -2.879194296546955
  39 N     7.0000    0    14.007         -2.168587350325609        -15.223104611552108         -1.231294526257472
  40 Cl   17.0000    0    35.453         -4.840541050943822        -11.202262506814769          2.003243872512035
  41 H     1.0000    0     1.008         -3.481814732571504        -14.132883810370256         -0.178443059373916
  42 H     1.0000    0     1.008         -0.913349993951355        -15.982698928343092          0.106455832028320
  43 H     1.0000    0     1.008         -4.445166880026416        -18.455547304039094         -1.725554286310709
  44 Cl   17.0000    0    35.453          1.805975361391996        -16.198749427508172          3.111479432928555
  45 H     1.0000    0     1.008         -5.708582971108281          2.150226771208430         -7.104287450469170
  46 H     1.0000    0     1.008         -4.618180756217576          1.767757540059572         -2.624430867802361
  47 C     6.0000    0    12.011         -4.575306649691171          3.619282860183606         -6.192564510719120
  48 H     1.0000    0     1.008         -5.806975341723159          5.180340265988738         -5.628233705620083
  49 N     7.0000    0    14.007         -3.326789159449141          2.543423977619559         -3.946802634810302
  50 H     1.0000    0     1.008         -2.136584838247653          1.002892777081080         -4.390481985163002
  51 H     1.0000    0     1.008         -3.149406236436354          4.310525782710661         -7.519741851285623
  52 H     1.0000    0     1.008         -2.203273273513733          3.846414713398003         -2.968933611194607
  53 H     1.0000    0     1.008          6.845918424261054        -16.079587076955367          9.333999882322594
  54 H     1.0000    0     1.008          4.430667011400838        -14.772845234801091          5.551731922540549
  55 C     6.0000    0    12.011          7.619634664450833        -14.723047171719998          7.979893944347715
  56 H     1.0000    0     1.008          8.875153590019043        -15.702654743378901          6.661706031000277
  57 N     7.0000    0    14.007          5.542160459672238        -13.504126572187442          6.579673019526755
  58 H     1.0000    0     1.008          4.303004672697654        -12.458559999550154          7.767430145384815
  59 H     1.0000    0     1.008          8.688014010976820        -13.276289851125092          8.999051594263456
  60 H     1.0000    0     1.008          6.179119109276271        -12.142552436531306          5.268152059979791
* core charge reduced due to ECP

--------------------------------
INTERNAL COORDINATES (ANGSTROEM)
--------------------------------
 C      0   0   0   0.000000     0.000     0.000
 N      1   0   0   1.474351     0.000     0.000
 H      1   2   0   1.094057   109.379     0.000
 H      1   2   3   1.093747   109.392   240.247
 H      1   2   3   1.093743   109.882   120.181
 H      2   1   3   1.059937   113.525    58.337
 H      2   1   3   1.049786   114.205   300.796
 H      2   1   3   1.052480   114.026   179.570
 Pb     6   2   1   3.269171    98.649   182.922
 Cl     7   2   1   2.165186   154.309   159.414
 Cl     8   2   1   1.973419   162.521   184.329
 Cl     6   2   1   2.064437   159.383   189.762
 Cl     9   6   2   3.447527   128.297   242.419
 Cl     9   6   2   3.027735   140.538     0.885
 Cl     9   6   2   2.893425   117.492   142.594
 N     14   9   6   3.104241    82.113   176.590
 C     16  14   9   1.481437   120.553   170.873
 H     16  14   9   1.054191    87.646    55.957
 H     16  14   9   1.045770    16.906   233.689
 H     17  16  14   1.091638   108.854   194.590
 H     17  16  14   1.092106   108.201    75.385
 H     17  16  14   1.093521   108.670   315.276
 H     16  14   9   1.027810   113.585   306.465
 Cl    10   7   2   4.273359   150.492   273.338
 Cl    24  10   7   4.136177   101.088    48.973
 Pb    15   9   6   2.843990   134.093   252.832
 N     24  10   7   3.104007    53.857    33.853
 C     27  24  10   1.480482   123.119   280.173
 H     27  24  10   1.044781    14.557   327.376
 H     27  24  10   1.029741   108.302    53.522
 H     28  27  24   1.093789   108.810   311.408
 H     28  27  24   1.091975   108.924   190.826
 H     28  27  24   1.091334   108.308    71.938
 H     27  24  10   1.054075    90.655   161.976
 Cl    26  15   9   2.853196    98.007   315.349
 H     21  17  16   3.848588   138.761   122.863
 H     35  26  15   2.189791    84.358   226.690
 H     36  21  17   1.785929   125.185   216.379
 C     38  36  21   1.093832    35.291    87.016
 N     37  35  26   1.049512   153.614    15.902
 Cl    23  16  14   2.723293   135.678   202.833
 H     40  37  35   1.061214   102.750    39.881
 H     40  37  35   1.050677   105.403   289.540
 H     39  38  36   1.093699   109.375   119.736
 Cl    43  40  37   2.147676   160.533    51.124
 H     13   9   6   4.013287    97.239   105.956
 H     13   9   6   2.002883    73.922    89.350
 C     46  13   9   1.093962    82.192   309.082
 H     48  46  13   1.093795   109.295   269.834
 N     47  13   9   1.060735   163.277    33.639
 H     50  47  13   1.056590   103.419    23.006
 H     48  46  13   1.093799   109.429   149.932
 H     50  47  13   1.047223   107.131   271.038
 H     25  24  10   4.208116    74.946   200.867
 H     45  43  40   2.041077   154.784   346.300
 C     54  25  24   1.093803    73.790    14.836
 H     56  54  25   1.093949   109.516   202.070
 N     55  45  43   1.045273   161.732    11.282
 H     58  55  45   1.063565   107.143    63.588
 H     56  54  25   1.093903   109.256    82.263
 H     58  55  45   1.055664   106.017   313.754

---------------------------
INTERNAL COORDINATES (A.U.)
---------------------------
 C      0   0   0   0.000000     0.000     0.000
 N      1   0   0   2.786120     0.000     0.000
 H      1   2   0   2.067468   109.379     0.000
 H      1   2   3   2.066883   109.392   240.247
 H      1   2   3   2.066875   109.882   120.181
 H      2   1   3   2.002991   113.525    58.337
 H      2   1   3   1.983809   114.205   300.796
 H      2   1   3   1.988899   114.026   179.570
 Pb     6   2   1   6.177838    98.649   182.922
 Cl     7   2   1   4.091609   154.309   159.414
 Cl     8   2   1   3.729221   162.521   184.329
 Cl     6   2   1   3.901221   159.383   189.762
 Cl     9   6   2   6.514883   128.297   242.419
 Cl     9   6   2   5.721589   140.538     0.885
 Cl     9   6   2   5.467781   117.492   142.594
 N     14   9   6   5.866165    82.113   176.590
 C     16  14   9   2.799511   120.553   170.873
 H     16  14   9   1.992133    87.646    55.957
 H     16  14   9   1.976218    16.906   233.689
 H     17  16  14   2.062897   108.854   194.590
 H     17  16  14   2.063782   108.201    75.385
 H     17  16  14   2.066456   108.670   315.276
 H     16  14   9   1.942279   113.585   306.465
 Cl    10   7   2   8.075478   150.492   273.338
 Cl    24  10   7   7.816242   101.088    48.973
 Pb    15   9   6   5.374362   134.093   252.832
 N     24  10   7   5.865723    53.857    33.853
 C     27  24  10   2.797706   123.119   280.173
 H     27  24  10   1.974351    14.557   327.376
 H     27  24  10   1.945929   108.302    53.522
 H     28  27  24   2.066961   108.810   311.408
 H     28  27  24   2.063535   108.924   190.826
 H     28  27  24   2.062322   108.308    71.938
 H     27  24  10   1.991912    90.655   161.976
 Cl    26  15   9   5.391759    98.007   315.349
 H     21  17  16   7.272777   138.761   122.863
 H     35  26  15   4.138106    84.358   226.690
 H     36  21  17   3.374916   125.185   216.379
 C     38  36  21   2.067044    35.291    87.016
 N     37  35  26   1.983290   153.614    15.902
 Cl    23  16  14   5.146278   135.678   202.833
 H     40  37  35   2.005404   102.750    39.881
 H     40  37  35   1.985492   105.403   289.540
 H     39  38  36   2.066792   109.375   119.736
 Cl    43  40  37   4.058519   160.533    51.124
 H     13   9   6   7.584013    97.239   105.956
 H     13   9   6   3.784901    73.922    89.350
 C     46  13   9   2.067288    82.192   309.082
 H     48  46  13   2.066973   109.295   269.834
 N     47  13   9   2.004499   163.277    33.639
 H     50  47  13   1.996666   103.419    23.006
 H     48  46  13   2.066981   109.429   149.932
 H     50  47  13   1.978965   107.131   271.038
 H     25  24  10   7.952186    74.946   200.867
 H     45  43  40   3.857077   154.784   346.300
 C     54  25  24   2.066988    73.790    14.836
 H     56  54  25   2.067263   109.516   202.070
 N     55  45  43   1.975279   161.732    11.282
 H     58  55  45   2.009847   107.143    63.588
 H     56  54  25   2.067178   109.256    82.263
 H     58  55  45   1.994915   106.017   313.754

---------------------
BASIS SET INFORMATION
---------------------
There are 5 groups of distinct atoms

 Group   1 Type C   : 11s6p2d1f contracted to 5s3p2d1f pattern {62111/411/11/1}
 Group   2 Type N   : 11s6p2d1f contracted to 5s3p2d1f pattern {62111/411/11/1}
 Group   3 Type H   : 5s1p contracted to 3s1p pattern {311/1}
 Group   4 Type Pb  : 10s9p8d2f contracted to 6s5p3d2f pattern {421111/33111/611/11}
 Group   5 Type Cl  : 14s9p3d1f contracted to 5s5p2d1f pattern {73211/51111/21/1}

Atom   0C    basis set group =>   1
Atom   1N    basis set group =>   2
Atom   2H    basis set group =>   3
Atom   3H    basis set group =>   3
Atom   4H    basis set group =>   3
Atom   5H    basis set group =>   3
Atom   6H    basis set group =>   3
Atom   7H    basis set group =>   3
Atom   8Pb   basis set group =>   4
Atom   9Cl   basis set group =>   5
Atom  10Cl   basis set group =>   5
Atom  11Cl   basis set group =>   5
Atom  12Cl   basis set group =>   5
Atom  13Cl   basis set group =>   5
Atom  14Cl   basis set group =>   5
Atom  15N    basis set group =>   2
Atom  16C    basis set group =>   1
Atom  17H    basis set group =>   3
Atom  18H    basis set group =>   3
Atom  19H    basis set group =>   3
Atom  20H    basis set group =>   3
Atom  21H    basis set group =>   3
Atom  22H    basis set group =>   3
Atom  23Cl   basis set group =>   5
Atom  24Cl   basis set group =>   5
Atom  25Pb   basis set group =>   4
Atom  26N    basis set group =>   2
Atom  27C    basis set group =>   1
Atom  28H    basis set group =>   3
Atom  29H    basis set group =>   3
Atom  30H    basis set group =>   3
Atom  31H    basis set group =>   3
Atom  32H    basis set group =>   3
Atom  33H    basis set group =>   3
Atom  34Cl   basis set group =>   5
Atom  35H    basis set group =>   3
Atom  36H    basis set group =>   3
Atom  37H    basis set group =>   3
Atom  38C    basis set group =>   1
Atom  39N    basis set group =>   2
Atom  40Cl   basis set group =>   5
Atom  41H    basis set group =>   3
Atom  42H    basis set group =>   3
Atom  43H    basis set group =>   3
Atom  44Cl   basis set group =>   5
Atom  45H    basis set group =>   3
Atom  46H    basis set group =>   3
Atom  47C    basis set group =>   1
Atom  48H    basis set group =>   3
Atom  49N    basis set group =>   2
Atom  50H    basis set group =>   3
Atom  51H    basis set group =>   3
Atom  52H    basis set group =>   3
Atom  53H    basis set group =>   3
Atom  54H    basis set group =>   3
Atom  55C    basis set group =>   1
Atom  56H    basis set group =>   3
Atom  57N    basis set group =>   2
Atom  58H    basis set group =>   3
Atom  59H    basis set group =>   3
Atom  60H    basis set group =>   3
-------------------------------
AUXILIARY BASIS SET INFORMATION
-------------------------------
There are 5 groups of distinct atoms

 Group   1 Type C   : 12s5p4d2f1g contracted to 6s4p3d1f1g pattern {711111/2111/211/2/1}
 Group   2 Type N   : 12s5p4d2f1g contracted to 6s4p3d1f1g pattern {711111/2111/211/2/1}
 Group   3 Type H   : 5s2p1d contracted to 3s1p1d pattern {311/2/1}
 Group   4 Type Pb  : 31s12p8d6f3g contracted to 31s12p8d6f3g pattern {1111111111111111111111111111111/111111111111/11111111/111111/111}
 Group   5 Type Cl  : 14s5p5d2f1g contracted to 8s4p3d1f1g pattern {71111111/2111/311/2/1}

Atom   0C    basis set group =>   1
Atom   1N    basis set group =>   2
Atom   2H    basis set group =>   3
Atom   3H    basis set group =>   3
Atom   4H    basis set group =>   3
Atom   5H    basis set group =>   3
Atom   6H    basis set group =>   3
Atom   7H    basis set group =>   3
Atom   8Pb   basis set group =>   4
Atom   9Cl   basis set group =>   5
Atom  10Cl   basis set group =>   5
Atom  11Cl   basis set group =>   5
Atom  12Cl   basis set group =>   5
Atom  13Cl   basis set group =>   5
Atom  14Cl   basis set group =>   5
Atom  15N    basis set group =>   2
Atom  16C    basis set group =>   1
Atom  17H    basis set group =>   3
Atom  18H    basis set group =>   3
Atom  19H    basis set group =>   3
Atom  20H    basis set group =>   3
Atom  21H    basis set group =>   3
Atom  22H    basis set group =>   3
Atom  23Cl   basis set group =>   5
Atom  24Cl   basis set group =>   5
Atom  25Pb   basis set group =>   4
Atom  26N    basis set group =>   2
Atom  27C    basis set group =>   1
Atom  28H    basis set group =>   3
Atom  29H    basis set group =>   3
Atom  30H    basis set group =>   3
Atom  31H    basis set group =>   3
Atom  32H    basis set group =>   3
Atom  33H    basis set group =>   3
Atom  34Cl   basis set group =>   5
Atom  35H    basis set group =>   3
Atom  36H    basis set group =>   3
Atom  37H    basis set group =>   3
Atom  38C    basis set group =>   1
Atom  39N    basis set group =>   2
Atom  40Cl   basis set group =>   5
Atom  41H    basis set group =>   3
Atom  42H    basis set group =>   3
Atom  43H    basis set group =>   3
Atom  44Cl   basis set group =>   5
Atom  45H    basis set group =>   3
Atom  46H    basis set group =>   3
Atom  47C    basis set group =>   1
Atom  48H    basis set group =>   3
Atom  49N    basis set group =>   2
Atom  50H    basis set group =>   3
Atom  51H    basis set group =>   3
Atom  52H    basis set group =>   3
Atom  53H    basis set group =>   3
Atom  54H    basis set group =>   3
Atom  55C    basis set group =>   1
Atom  56H    basis set group =>   3
Atom  57N    basis set group =>   2
Atom  58H    basis set group =>   3
Atom  59H    basis set group =>   3
Atom  60H    basis set group =>   3

-------------------------
ECP PARAMETER INFORMATION
-------------------------

 Group 1, Type Pb ECP SD(60,MDF) (replacing 60 core electrons, lmax=5)

Atom   8Pb   ECP group =>   1
Atom  25Pb   ECP group =>   1


------------------------------------------------------------------------------
                           ORCA GTO INTEGRAL CALCULATION
                           -- RI-GTO INTEGRALS CHOSEN --
------------------------------------------------------------------------------

                         BASIS SET STATISTICS AND STARTUP INFO

Gaussian basis set:
 # of primitive gaussian shells          ...  811
 # of primitive gaussian functions       ... 1715
 # of contracted shells                  ...  451
 # of contracted basis functions         ... 1095
 Highest angular momentum                ...    3
 Maximum contraction depth               ...    7
Auxiliary gaussian basis set:
 # of primitive gaussian shells          ...  993
 # of primitive gaussian functions       ... 2615
 # of contracted shells                  ...  667
 # of contracted aux-basis functions     ... 1897
 Highest angular momentum                ...    4
 Maximum contraction depth               ...    7
Ratio of auxiliary to basis functions    ...  1.73
Integral package used                  ... LIBINT
 One Electron integrals                  
   ECP integrals                         ... done
 Ordering auxiliary basis shells         ... done
 Integral threshhold             Thresh  ...  2.500e-11
 Primitive cut-off               TCut    ...  2.500e-12
 Pre-screening matrix                    ... done
 Shell pair data                         ... 
 Ordering of the shell pairs             ... done (   0.010 sec) 48316 of 101926 pairs
 Determination of significant pairs      ... done (   0.000 sec)
 Creation of shell pair data             ... done (   0.009 sec)
 Storage of shell pair data              ... done (   0.007 sec)
 Shell pair data done in (   0.027 sec)
 Computing two index integrals           ... done
 Cholesky decomposition of the V-matrix  ... done


Timings:
 Total evaluation time                   ...   7.528 sec (  0.125 min)
 One electron matrix time                ...   4.913 sec (  0.082 min) = 65.3%
 Schwartz matrix evaluation time         ...   2.094 sec (  0.035 min) = 27.8%
 Two index repulsion integral time       ...   0.118 sec (  0.002 min) =  1.6%
 Cholesky decomposition of V             ...   0.346 sec (  0.006 min) =  4.6%
 Three index repulsion integral time     ...   0.000 sec (  0.000 min) =  0.0%

-------------------------------------------------------------------------------
                                 ORCA SCF
-------------------------------------------------------------------------------

------------
SCF SETTINGS
------------
Hamiltonian:
 Density Functional     Method          .... DFT(GTOs)
 Exchange Functional    Exchange        .... B88
   X-Alpha parameter    XAlpha          ....  0.666667
   Becke's b parameter  XBeta           ....  0.004200
 Correlation Functional Correlation     .... LYP
 LDA part of GGA corr.  LDAOpt          .... VWN-3
 Gradients option       PostSCFGGA      .... off
 Hybrid DFT is turned on
   Fraction HF Exchange ScalHFX         ....  0.530000
   Scaling of DF-GGA-X  ScalDFX         ....  0.470000
   Scaling of DF-GGA-C  ScalDFC         ....  0.730000
   Scaling of DF-LDA-C  ScalLDAC        ....  0.730000
   Perturbative correction              ....  0.270000
 RI-approximation to the Coulomb term is turned on
   Number of auxiliary basis functions  .... 1897
   RIJ-COSX (HFX calculated with COS-X)).... on


General Settings:
 Integral files         IntName         .... Pb2Cl11_6NH3CH3_-1_mp2_sp2_7.orca
 Hartree-Fock type      HFTyp           .... RHF
 Total Charge           Charge          ....   -1
 Multiplicity           Mult            ....    1
 Number of Electrons    NEL             ....  346
 Basis Dimension        Dim             .... 1095
 Nuclear Repulsion      ENuc            ....   5897.2140730758 Eh

Convergence Acceleration:
 DIIS                   CNVDIIS         .... on
   Start iteration      DIISMaxIt       ....    12
   Startup error        DIISStart       ....  0.200000
   # of expansion vecs  DIISMaxEq       ....     5
   Bias factor          DIISBfac        ....   1.050
   Max. coefficient     DIISMaxC        ....  10.000
 Newton-Raphson         CNVNR           .... off
 SOSCF                  CNVSOSCF        .... on
   Start iteration      SOSCFMaxIt      ....   150
   Startup grad/error   SOSCFStart      ....  0.003300
 Level Shifting         CNVShift        .... on
   Level shift para.    LevelShift      ....    0.2500
   Turn off err/grad.   ShiftErr        ....    0.0010
 Zerner damping         CNVZerner       .... off
 Static damping         CNVDamp         .... on
   Fraction old density DampFac         ....    0.7000
   Max. Damping (<1)    DampMax         ....    0.9800
   Min. Damping (>=0)   DampMin         ....    0.0000
   Turn off err/grad.   DampErr         ....    0.1000
 Fernandez-Rico         CNVRico         .... off

SCF Procedure:
 Maximum # iterations   MaxIter         ....   125
 SCF integral mode      SCFMode         .... Direct
   Integral package                     .... LIBINT
 Reset frequeny         DirectResetFreq ....    20
 Integral Threshold     Thresh          ....  2.500e-11 Eh
 Primitive CutOff       TCut            ....  2.500e-12 Eh

Convergence Tolerance:
 Convergence Check Mode ConvCheckMode   .... Total+1el-Energy
 Energy Change          TolE            ....  1.000e-08 Eh
 1-El. energy change                    ....  1.000e-05 Eh
 Orbital Gradient       TolG            ....  1.000e-05
 Orbital Rotation angle TolX            ....  1.000e-05
 DIIS Error             TolErr          ....  5.000e-07


Diagonalization of the overlap matrix:
Smallest eigenvalue                        ... 8.255e-04
Time for diagonalization                   ...    0.932 sec
Threshold for overlap eigenvalues          ... 1.000e-08
Number of eigenvalues below threshold      ... 0
Time for construction of square roots      ...    0.490 sec
Total time needed                          ...    1.425 sec

---------------------
INITIAL GUESS: MOREAD
---------------------
Guess MOs are being read from file: previous.gbw
Input Geometry matches current geometry (good)
Input basis set matches current basis set (good)
MOs were renormalized
MOs were reorthogonalized (Cholesky)
                      ------------------
                      INITIAL GUESS DONE (   1.6 sec)
                      ------------------
-------------------
DFT GRID GENERATION
-------------------

General Integration Accuracy     IntAcc      ...  5.010
Radial Grid Type                 RadialGrid  ... Gauss-Chebyshev
Angular Grid (max. acc.)         AngularGrid ... Lebedev-434
Angular grid pruning method      GridPruning ... 3 (G Style)
Weight generation scheme         WeightScheme... Becke
Basis function cutoff            BFCut       ...    1.0000e-11
Integration weight cutoff        WCut        ...    1.0000e-14
Grids for H and He will be reduced by one unit

# of grid points (after initial pruning)     ... 536944 (   0.5 sec)
# of grid points (after weights+screening)   ... 471521 (  18.3 sec)
nearest neighbour list constructed           ...    0.0 sec
Grid point re-assignment to atoms done       ...    0.2 sec
Grid point division into batches done        ...    3.6 sec
Reduced shell lists constructed in   18.6 sec

Total number of grid points                  ...   471521
Total number of batches                      ...     7395
Average number of points per batch           ...       63
Average number of grid points per atom       ...     7730
Average number of shells per batch           ...   108.10 (23.97%)
Average number of basis functions per batch  ...   250.59 (22.88%)
Average number of large shells per batch     ...    63.51 (58.75%)
Average number of large basis fcns per batch ...   149.95 (59.84%)
Maximum spatial batch extension              ...  29.53, 29.45, 29.33 au
Average spatial batch extension              ...   1.81,  1.77,  1.80 au

Time for grid setup =   37.474 sec

--------------------
COSX GRID GENERATION
--------------------

General Integration Accuracy     IntAcc      ...  3.340
Radial Grid Type                 RadialGrid  ... Gauss-Chebyshev
Angular Grid (max. acc.)         AngularGrid ... Lebedev-50
Angular grid pruning method      GridPruning ... 3 (G Style)
Weight generation scheme         WeightScheme... Becke
Basis function cutoff            BFCut       ...    1.0000e-11
Integration weight cutoff        WCut        ...    1.0000e-14
Grids for H and He will be reduced by one unit

# of grid points (after initial pruning)     ...  28950 (   0.0 sec)
# of grid points (after weights+screening)   ...  26070 (   1.0 sec)
nearest neighbour list constructed           ...    0.0 sec
Grid point re-assignment to atoms done       ...    0.0 sec
Grid point division into batches done        ...    0.0 sec
Reduced shell lists constructed in    1.2 sec

Total number of grid points                  ...    26070
Total number of batches                      ...      441
Average number of points per batch           ...       59
Average number of grid points per atom       ...      427
Average number of shells per batch           ...   138.71 (30.76%)
Average number of basis functions per batch  ...   329.14 (30.06%)
Average number of large shells per batch     ...    81.89 (59.04%)
Average number of large basis fcns per batch ...   196.22 (59.61%)
Maximum spatial batch extension              ...  22.80, 21.23, 22.57 au
Average spatial batch extension              ...   4.66,  4.31,  4.73 au

Overlap Fitting                  UseSFitting ... on
Constructing numerical overlap ... done (      1.1 sec)
Inverting numerical overlap    ... done (      0.1 sec)
Obtaining analytic overlap     ... done (      0.0 sec)
Final contraction and storage  ... done (      0.2 sec)


General Integration Accuracy     IntAcc      ...  3.670
Radial Grid Type                 RadialGrid  ... Gauss-Chebyshev
Angular Grid (max. acc.)         AngularGrid ... Lebedev-50
Angular grid pruning method      GridPruning ... 3 (G Style)
Weight generation scheme         WeightScheme... Becke
Basis function cutoff            BFCut       ...    1.0000e-11
Integration weight cutoff        WCut        ...    1.0000e-14
Grids for H and He will be reduced by one unit

# of grid points (after initial pruning)     ...  36590 (   0.0 sec)
# of grid points (after weights+screening)   ...  32864 (   1.3 sec)
nearest neighbour list constructed           ...    0.0 sec
Grid point re-assignment to atoms done       ...    0.0 sec
Grid point division into batches done        ...    0.0 sec
Reduced shell lists constructed in    1.4 sec

Total number of grid points                  ...    32864
Total number of batches                      ...      539
Average number of points per batch           ...       60
Average number of grid points per atom       ...      539
Average number of shells per batch           ...   134.70 (29.87%)
Average number of basis functions per batch  ...   318.48 (29.09%)
Average number of large shells per batch     ...    79.34 (58.90%)
Average number of large basis fcns per batch ...   189.42 (59.48%)
Maximum spatial batch extension              ...  23.68, 21.85, 24.10 au
Average spatial batch extension              ...   4.34,  3.99,  4.31 au

Overlap Fitting                  UseSFitting ... on
Constructing numerical overlap ... done (      1.3 sec)
Inverting numerical overlap    ... done (      0.2 sec)
Obtaining analytic overlap     ... done (      0.0 sec)
Final contraction and storage  ... done (      0.3 sec)


General Integration Accuracy     IntAcc      ...  4.010
Radial Grid Type                 RadialGrid  ... Gauss-Chebyshev
Angular Grid (max. acc.)         AngularGrid ... Lebedev-110
Angular grid pruning method      GridPruning ... 3 (G Style)
Weight generation scheme         WeightScheme... Becke
Basis function cutoff            BFCut       ...    1.0000e-11
Integration weight cutoff        WCut        ...    1.0000e-14
Grids for H and He will be reduced by one unit

# of grid points (after initial pruning)     ...  66396 (   0.0 sec)
# of grid points (after weights+screening)   ...  59872 (   2.2 sec)
nearest neighbour list constructed           ...    0.0 sec
Grid point re-assignment to atoms done       ...    0.0 sec
Grid point division into batches done        ...    0.1 sec
Reduced shell lists constructed in    2.5 sec

Total number of grid points                  ...    59872
Total number of batches                      ...      965
Average number of points per batch           ...       62
Average number of grid points per atom       ...      982
Average number of shells per batch           ...   128.66 (28.53%)
Average number of basis functions per batch  ...   303.25 (27.69%)
Average number of large shells per batch     ...    76.16 (59.19%)
Average number of large basis fcns per batch ...   181.83 (59.96%)
Maximum spatial batch extension              ...  28.08, 23.00, 25.86 au
Average spatial batch extension              ...   3.75,  3.46,  3.73 au

Overlap Fitting                  UseSFitting ... on
Constructing numerical overlap ... done (      2.0 sec)
Inverting numerical overlap    ... done (      0.1 sec)
Obtaining analytic overlap     ... done (      0.0 sec)
Final contraction and storage  ... done (      0.2 sec)

Time for X-Grid setup             =   15.355 sec
--------------
SCF ITERATIONS
--------------
ITER       Energy         Delta-E        Max-DP      RMS-DP      [F,P]     Damp
               ***  Starting incremental Fock matrix formation  ***
                      *** Initiating the SOSCF procedure ***
                      *** Re-Reading the Fockian *** 
                      *** Removing any level shift *** 
ITER      Energy       Delta-E        Grad      Rot      Max-DP    RMS-DP
  0  -6023.63505554 -6023.6350555410  0.000001  0.000001  0.000011  0.000000
               *** Restarting incremental Fock matrix formation ***
                  ***Gradient check signals convergence***
              ***Rediagonalizing the Fockian in SOSCF/NRSCF***

               *****************************************************
               *                     SUCCESS                       *
               *           SCF CONVERGED AFTER   1 CYCLES          *
               *****************************************************

Old exchange energy                            =   -221.011953491 Eh
New exchange energy                            =   -221.023896190 Eh
Exchange energy change after final integration =     -0.011942700 Eh
Total energy after final integration           =  -6023.646998242 Eh
Final COS-X integration done in                =   538.736 sec

----------------
TOTAL SCF ENERGY
----------------

Total Energy       :        -6023.64699824 Eh         -163911.76794 eV

Components:
Nuclear Repulsion  :         5897.21407308 Eh          160471.35313 eV
Electronic Energy  :       -11920.86107132 Eh         -324383.12107 eV

One Electron Energy:       -20263.05347623 Eh         -551385.71700 eV
Two Electron Energy:         8342.19240491 Eh          227002.59593 eV

Virial components:
Potential Energy   :       -11780.39183865 Eh         -320560.75892 eV
Kinetic Energy     :         5756.74484041 Eh          156648.99099 eV
Virial Ratio       :            2.04636338


DFT components:
N(Alpha)           :      173.000066667065 electrons
N(Beta)            :      173.000066667065 electrons
N(Total)           :      346.000133334129 electrons
E(X)               :     -196.134612945145 Eh       
E(C)               :       -9.608618517066 Eh       
E(XC)              :     -205.743231462211 Eh       

---------------
SCF CONVERGENCE
---------------

  Last Energy change         ...   -1.3670e-09  Tolerance :   1.0000e-08
  Last MAX-Density change    ...    4.9338e-13  Tolerance :   1.0000e-07
  Last RMS-Density change    ...    7.8151e-16  Tolerance :   5.0000e-09
  Last Orbital Gradient      ...    6.2814e-07  Tolerance :   1.0000e-05
  Last Orbital Rotation      ...    1.6893e-06  Tolerance :   1.0000e-05

             **** THE GBW FILE WAS UPDATED (Pb2Cl11_6NH3CH3_-1_mp2_sp2_7.orca.gbw) ****
             **** DENSITY FILE WAS UPDATED (Pb2Cl11_6NH3CH3_-1_mp2_sp2_7.orca.scfp.tmp) ****
             **** ENERGY FILE WAS UPDATED (Pb2Cl11_6NH3CH3_-1_mp2_sp2_7.orca.en.tmp) ****
----------------
ORBITAL ENERGIES
----------------

  NO   OCC          E(Eh)            E(eV) 
   0   2.0000    -102.758642     -2796.2048 
   1   2.0000    -102.739355     -2795.6800 
   2   2.0000    -102.734937     -2795.5598 
   3   2.0000    -102.734227     -2795.5405 
   4   2.0000    -102.732590     -2795.4959 
   5   2.0000    -102.732429     -2795.4915 
   6   2.0000    -102.728629     -2795.3881 
   7   2.0000    -102.728269     -2795.3783 
   8   2.0000    -102.725673     -2795.3077 
   9   2.0000    -102.717476     -2795.0846 
  10   2.0000    -102.713902     -2794.9874 
  11   2.0000     -14.851957      -404.1423 
  12   2.0000     -14.839398      -403.8006 
  13   2.0000     -14.831956      -403.5980 
  14   2.0000     -14.831080      -403.5742 
  15   2.0000     -14.830505      -403.5586 
  16   2.0000     -14.830391      -403.5555 
  17   2.0000     -10.618881      -288.9544 
  18   2.0000     -10.611868      -288.7636 
  19   2.0000     -10.603855      -288.5456 
  20   2.0000     -10.603519      -288.5364 
  21   2.0000     -10.583359      -287.9878 
  22   2.0000     -10.582017      -287.9513 
  23   2.0000      -9.766123      -265.7497 
  24   2.0000      -9.746115      -265.2053 
  25   2.0000      -9.741289      -265.0739 
  26   2.0000      -9.741049      -265.0674 
  27   2.0000      -9.739803      -265.0335 
  28   2.0000      -9.739800      -265.0334 
  29   2.0000      -9.735828      -264.9253 
  30   2.0000      -9.735404      -264.9138 
  31   2.0000      -9.732744      -264.8414 
  32   2.0000      -9.724334      -264.6126 
  33   2.0000      -9.720860      -264.5180 
  34   2.0000      -7.402846      -201.4417 
  35   2.0000      -7.401640      -201.4089 
  36   2.0000      -7.401555      -201.4065 
  37   2.0000      -7.382936      -200.8999 
  38   2.0000      -7.381847      -200.8703 
  39   2.0000      -7.381432      -200.8590 
  40   2.0000      -7.378107      -200.7685 
  41   2.0000      -7.377534      -200.7529 
  42   2.0000      -7.377087      -200.7407 
  43   2.0000      -7.377047      -200.7397 
  44   2.0000      -7.376651      -200.7289 
  45   2.0000      -7.376544      -200.7260 
  46   2.0000      -7.376187      -200.7163 
  47   2.0000      -7.376178      -200.7160 
  48   2.0000      -7.375973      -200.7104 
  49   2.0000      -7.375946      -200.7097 
  50   2.0000      -7.375313      -200.6925 
  51   2.0000      -7.375295      -200.6920 
  52   2.0000      -7.372007      -200.6025 
  53   2.0000      -7.371929      -200.6004 
  54   2.0000      -7.371921      -200.6002 
  55   2.0000      -7.371408      -200.5862 
  56   2.0000      -7.371367      -200.5851 
  57   2.0000      -7.370888      -200.5721 
  58   2.0000      -7.368977      -200.5201 
  59   2.0000      -7.368812      -200.5156 
  60   2.0000      -7.368395      -200.5042 
  61   2.0000      -7.360594      -200.2919 
  62   2.0000      -7.360306      -200.2841 
  63   2.0000      -7.360188      -200.2809 
  64   2.0000      -7.357153      -200.1983 
  65   2.0000      -7.356796      -200.1886 
  66   2.0000      -7.356706      -200.1862 
  67   2.0000      -5.709439      -155.3617 
  68   2.0000      -5.703070      -155.1884 
  69   2.0000      -3.480348       -94.7051 
  70   2.0000      -3.479386       -94.6789 
  71   2.0000      -3.479111       -94.6714 
  72   2.0000      -3.474406       -94.5434 
  73   2.0000      -3.472869       -94.5016 
  74   2.0000      -3.472562       -94.4932 
  75   2.0000      -1.031542       -28.0697 
  76   2.0000      -1.022885       -27.8341 
  77   2.0000      -1.013999       -27.5923 
  78   2.0000      -1.013681       -27.5837 
  79   2.0000      -1.009930       -27.4816 
  80   2.0000      -1.009748       -27.4767 
  81   2.0000      -0.871327       -23.7100 
  82   2.0000      -0.868893       -23.6438 
  83   2.0000      -0.867837       -23.6150 
  84   2.0000      -0.867258       -23.5993 
  85   2.0000      -0.866141       -23.5689 
  86   2.0000      -0.865497       -23.5514 
  87   2.0000      -0.863842       -23.5063 
  88   2.0000      -0.862205       -23.4618 
  89   2.0000      -0.861252       -23.4358 
  90   2.0000      -0.859783       -23.3959 
  91   2.0000      -0.780217       -21.2308 
  92   2.0000      -0.770907       -20.9775 
  93   2.0000      -0.768613       -20.9150 
  94   2.0000      -0.759772       -20.6745 
  95   2.0000      -0.759039       -20.6545 
  96   2.0000      -0.756073       -20.5738 
  97   2.0000      -0.751717       -20.4553 
  98   2.0000      -0.749410       -20.3925 
  99   2.0000      -0.748449       -20.3663 
 100   2.0000      -0.747325       -20.3358 
 101   2.0000      -0.744850       -20.2684 
 102   2.0000      -0.742262       -20.1980 
 103   2.0000      -0.741761       -20.1843 
 104   2.0000      -0.736619       -20.0444 
 105   2.0000      -0.734956       -19.9992 
 106   2.0000      -0.726220       -19.7614 
 107   2.0000      -0.725747       -19.7486 
 108   2.0000      -0.563656       -15.3379 
 109   2.0000      -0.556714       -15.1490 
 110   2.0000      -0.556355       -15.1392 
 111   2.0000      -0.549114       -14.9422 
 112   2.0000      -0.548856       -14.9351 
 113   2.0000      -0.548029       -14.9126 
 114   2.0000      -0.546820       -14.8797 
 115   2.0000      -0.545223       -14.8363 
 116   2.0000      -0.542204       -14.7541 
 117   2.0000      -0.541474       -14.7343 
 118   2.0000      -0.533515       -14.5177 
 119   2.0000      -0.533337       -14.5128 
 120   2.0000      -0.501991       -13.6599 
 121   2.0000      -0.494581       -13.4582 
 122   2.0000      -0.484156       -13.1746 
 123   2.0000      -0.484032       -13.1712 
 124   2.0000      -0.468488       -12.7482 
 125   2.0000      -0.465972       -12.6797 
 126   2.0000      -0.452119       -12.3028 
 127   2.0000      -0.436806       -11.8861 
 128   2.0000      -0.426510       -11.6059 
 129   2.0000      -0.424295       -11.5456 
 130   2.0000      -0.420600       -11.4451 
 131   2.0000      -0.417561       -11.3624 
 132   2.0000      -0.411614       -11.2006 
 133   2.0000      -0.411492       -11.1973 
 134   2.0000      -0.409972       -11.1559 
 135   2.0000      -0.409156       -11.1337 
 136   2.0000      -0.399017       -10.8578 
 137   2.0000      -0.397553       -10.8180 
 138   2.0000      -0.392377       -10.6771 
 139   2.0000      -0.391185       -10.6447 
 140   2.0000      -0.286876        -7.8063 
 141   2.0000      -0.273937        -7.4542 
 142   2.0000      -0.269320        -7.3286 
 143   2.0000      -0.262647        -7.1470 
 144   2.0000      -0.257595        -7.0095 
 145   2.0000      -0.255198        -6.9443 
 146   2.0000      -0.252530        -6.8717 
 147   2.0000      -0.247498        -6.7348 
 148   2.0000      -0.245041        -6.6679 
 149   2.0000      -0.243254        -6.6193 
 150   2.0000      -0.240397        -6.5415 
 151   2.0000      -0.238630        -6.4934 
 152   2.0000      -0.237341        -6.4584 
 153   2.0000      -0.235772        -6.4157 
 154   2.0000      -0.234920        -6.3925 
 155   2.0000      -0.233520        -6.3544 
 156   2.0000      -0.231699        -6.3048 
 157   2.0000      -0.230830        -6.2812 
 158   2.0000      -0.229321        -6.2401 
 159   2.0000      -0.228521        -6.2184 
 160   2.0000      -0.227722        -6.1966 
 161   2.0000      -0.227180        -6.1819 
 162   2.0000      -0.226089        -6.1522 
 163   2.0000      -0.222332        -6.0500 
 164   2.0000      -0.221657        -6.0316 
 165   2.0000      -0.221592        -6.0298 
 166   2.0000      -0.221346        -6.0231 
 167   2.0000      -0.220043        -5.9877 
 168   2.0000      -0.217979        -5.9315 
 169   2.0000      -0.216251        -5.8845 
 170   2.0000      -0.213807        -5.8180 
 171   2.0000      -0.193697        -5.2708 
 172   2.0000      -0.184316        -5.0155 
 173   0.0000       0.097588         2.6555 
 174   0.0000       0.107086         2.9140 
 175   0.0000       0.115487         3.1426 
 176   0.0000       0.120631         3.2825 
 177   0.0000       0.122941         3.3454 
 178   0.0000       0.127817         3.4781 
 179   0.0000       0.129883         3.5343 
 180   0.0000       0.136826         3.7232 
 181   0.0000       0.138362         3.7650 
 182   0.0000       0.142842         3.8869 
 183   0.0000       0.164564         4.4780 
 184   0.0000       0.167527         4.5586 
 185   0.0000       0.177788         4.8379 
 186   0.0000       0.183468         4.9924 
 187   0.0000       0.185045         5.0353 
 188   0.0000       0.186906         5.0860 
 189   0.0000       0.194362         5.2889 
 190   0.0000       0.197439         5.3726 
 191   0.0000       0.198745         5.4081 
 192   0.0000       0.200391         5.4529 
 193   0.0000       0.205261         5.5854 
 194   0.0000       0.205640         5.5957 
 195   0.0000       0.207483         5.6459 
 196   0.0000       0.209113         5.6903 
 197   0.0000       0.212269         5.7761 
 198   0.0000       0.219881         5.9833 
 199   0.0000       0.230045         6.2598 
 200   0.0000       0.231894         6.3102 
 201   0.0000       0.236219         6.4279 
 202   0.0000       0.239770         6.5245 
 203   0.0000       0.244650         6.6573 
 204   0.0000       0.249442         6.7877 
 205   0.0000       0.252680         6.8758 
 206   0.0000       0.254389         6.9223 
 207   0.0000       0.257973         7.0198 
 208   0.0000       0.258152         7.0247 
 209   0.0000       0.266040         7.2393 
 210   0.0000       0.268294         7.3007 
 211   0.0000       0.270973         7.3736 
 212   0.0000       0.271992         7.4013 
 213   0.0000       0.273719         7.4483 
 214   0.0000       0.281538         7.6610 
 215   0.0000       0.284295         7.7361 
 216   0.0000       0.286470         7.7952 
 217   0.0000       0.288449         7.8491 
 218   0.0000       0.290030         7.8921 
 219   0.0000       0.294432         8.0119 
 220   0.0000       0.296190         8.0597 
 221   0.0000       0.300494         8.1769 
 222   0.0000       0.305846         8.3225 
 223   0.0000       0.310211         8.4413 
 224   0.0000       0.314422         8.5559 
 225   0.0000       0.323810         8.8113 
 226   0.0000       0.325743         8.8639 
 227   0.0000       0.338485         9.2107 
 228   0.0000       0.342309         9.3147 
 229   0.0000       0.345191         9.3931 
 230   0.0000       0.347219         9.4483 
 231   0.0000       0.349114         9.4999 
 232   0.0000       0.350809         9.5460 
 233   0.0000       0.355928         9.6853 
 234   0.0000       0.359764         9.7897 
 235   0.0000       0.363583         9.8936 
 236   0.0000       0.364651         9.9227 
 237   0.0000       0.366699         9.9784 
 238   0.0000       0.368081        10.0160 
 239   0.0000       0.370391        10.0788 
 240   0.0000       0.373514        10.1638 
 241   0.0000       0.374327        10.1860 
 242   0.0000       0.375438        10.2162 
 243   0.0000       0.381300        10.3757 
 244   0.0000       0.386113        10.5067 
 245   0.0000       0.390106        10.6153 
 246   0.0000       0.390840        10.6353 
 247   0.0000       0.397947        10.8287 
 248   0.0000       0.403529        10.9806 
 249   0.0000       0.406035        11.0488 
 250   0.0000       0.406813        11.0699 
 251   0.0000       0.409527        11.1438 
 252   0.0000       0.416742        11.3401 
 253   0.0000       0.424621        11.5545 
 254   0.0000       0.427085        11.6216 
 255   0.0000       0.427831        11.6419 
 256   0.0000       0.434967        11.8360 
 257   0.0000       0.437227        11.8976 
 258   0.0000       0.438803        11.9404 
 259   0.0000       0.450771        12.2661 
 260   0.0000       0.461711        12.5638 
 261   0.0000       0.462736        12.5917 
 262   0.0000       0.467688        12.7264 
 263   0.0000       0.471589        12.8326 
 264   0.0000       0.473439        12.8829 
 265   0.0000       0.477322        12.9886 
 266   0.0000       0.482749        13.1363 
 267   0.0000       0.485905        13.2221 
 268   0.0000       0.492375        13.3982 
 269   0.0000       0.494721        13.4620 
 270   0.0000       0.496808        13.5188 
 271   0.0000       0.499827        13.6010 
 272   0.0000       0.504483        13.7277 
 273   0.0000       0.507924        13.8213 
 274   0.0000       0.512689        13.9510 
 275   0.0000       0.517433        14.0801 
 276   0.0000       0.520612        14.1666 
 277   0.0000       0.525015        14.2864 
 278   0.0000       0.529933        14.4202 
 279   0.0000       0.533109        14.5066 
 280   0.0000       0.534798        14.5526 
 281   0.0000       0.537127        14.6160 
 282   0.0000       0.541337        14.7305 
 283   0.0000       0.548627        14.9289 
 284   0.0000       0.551952        15.0194 
 285   0.0000       0.552696        15.0396 
 286   0.0000       0.556804        15.1514 
 287   0.0000       0.559820        15.2335 
 288   0.0000       0.562934        15.3182 
 289   0.0000       0.563470        15.3328 
 290   0.0000       0.565982        15.4011 
 291   0.0000       0.566766        15.4225 
 292   0.0000       0.567526        15.4432 
 293   0.0000       0.571554        15.5528 
 294   0.0000       0.574365        15.6293 
 295   0.0000       0.575992        15.6735 
 296   0.0000       0.576436        15.6856 
 297   0.0000       0.579383        15.7658 
 298   0.0000       0.580577        15.7983 
 299   0.0000       0.583311        15.8727 
 300   0.0000       0.584598        15.9077 
 301   0.0000       0.587784        15.9944 
 302   0.0000       0.589438        16.0394 
 303   0.0000       0.591028        16.0827 
 304   0.0000       0.592839        16.1320 
 305   0.0000       0.595333        16.1998 
 306   0.0000       0.596603        16.2344 
 307   0.0000       0.600156        16.3311 
 308   0.0000       0.602673        16.3996 
 309   0.0000       0.604680        16.4542 
 310   0.0000       0.606159        16.4944 
 311   0.0000       0.607367        16.5273 
 312   0.0000       0.609941        16.5973 
 313   0.0000       0.611928        16.6514 
 314   0.0000       0.613963        16.7068 
 315   0.0000       0.616295        16.7702 
 316   0.0000       0.621132        16.9019 
 317   0.0000       0.623219        16.9587 
 318   0.0000       0.627775        17.0826 
 319   0.0000       0.631147        17.1744 
 320   0.0000       0.631670        17.1886 
 321   0.0000       0.632184        17.2026 
 322   0.0000       0.635464        17.2919 
 323   0.0000       0.637538        17.3483 
 324   0.0000       0.640482        17.4284 
 325   0.0000       0.642658        17.4876 
 326   0.0000       0.646274        17.5860 
 327   0.0000       0.647247        17.6125 
 328   0.0000       0.648962        17.6592 
 329   0.0000       0.654282        17.8039 
 330   0.0000       0.655261        17.8306 
 331   0.0000       0.656725        17.8704 
 332   0.0000       0.658328        17.9140 
 333   0.0000       0.661777        18.0079 
 334   0.0000       0.663186        18.0462 
 335   0.0000       0.665071        18.0975 
 336   0.0000       0.667502        18.1636 
 337   0.0000       0.671127        18.2623 
 338   0.0000       0.672269        18.2934 
 339   0.0000       0.677971        18.4485 
 340   0.0000       0.680205        18.5093 
 341   0.0000       0.683847        18.6084 
 342   0.0000       0.685230        18.6461 
 343   0.0000       0.686674        18.6853 
 344   0.0000       0.689862        18.7721 
 345   0.0000       0.691089        18.8055 
 346   0.0000       0.692215        18.8361 
 347   0.0000       0.698443        19.0056 
 348   0.0000       0.701288        19.0830 
 349   0.0000       0.703204        19.1351 
 350   0.0000       0.704880        19.1808 
 351   0.0000       0.711630        19.3644 
 352   0.0000       0.714426        19.4405 
 353   0.0000       0.716077        19.4854 
 354   0.0000       0.719010        19.5653 
 355   0.0000       0.726599        19.7718 
 356   0.0000       0.730580        19.8801 
 357   0.0000       0.731806        19.9134 
 358   0.0000       0.734576        19.9888 
 359   0.0000       0.736942        20.0532 
 360   0.0000       0.740965        20.1627 
 361   0.0000       0.742054        20.1923 
 362   0.0000       0.750004        20.4086 
 363   0.0000       0.752784        20.4843 
 364   0.0000       0.754877        20.5412 
 365   0.0000       0.764367        20.7995 
 366   0.0000       0.766435        20.8558 
 367   0.0000       0.768518        20.9124 
 368   0.0000       0.772758        21.0278 
 369   0.0000       0.773994        21.0615 
 370   0.0000       0.777075        21.1453 
 371   0.0000       0.784700        21.3528 
 372   0.0000       0.788786        21.4639 
 373   0.0000       0.790743        21.5172 
 374   0.0000       0.795367        21.6430 
 375   0.0000       0.798448        21.7269 
 376   0.0000       0.801785        21.8177 
 377   0.0000       0.804873        21.9017 
 378   0.0000       0.808143        21.9907 
 379   0.0000       0.810180        22.0461 
 380   0.0000       0.811437        22.0803 
 381   0.0000       0.813850        22.1460 
 382   0.0000       0.818228        22.2651 
 383   0.0000       0.820039        22.3144 
 384   0.0000       0.821930        22.3658 
 385   0.0000       0.825998        22.4766 
 386   0.0000       0.830030        22.5863 
 387   0.0000       0.831735        22.6327 
 388   0.0000       0.833283        22.6748 
 389   0.0000       0.834743        22.7145 
 390   0.0000       0.838235        22.8095 
 391   0.0000       0.839871        22.8541 
 392   0.0000       0.843154        22.9434 
 393   0.0000       0.847167        23.0526 
 394   0.0000       0.848392        23.0859 
 395   0.0000       0.853824        23.2337 
 396   0.0000       0.860707        23.4210 
 397   0.0000       0.866324        23.5739 
 398   0.0000       0.868828        23.6420 
 399   0.0000       0.874727        23.8025 
 400   0.0000       0.883963        24.0539 
 401   0.0000       0.884599        24.0712 
 402   0.0000       0.886396        24.1201 
 403   0.0000       0.887203        24.1420 
 404   0.0000       0.896450        24.3937 
 405   0.0000       0.898861        24.4592 
 406   0.0000       0.900935        24.5157 
 407   0.0000       0.904658        24.6170 
 408   0.0000       0.909604        24.7516 
 409   0.0000       0.913976        24.8706 
 410   0.0000       0.918573        24.9956 
 411   0.0000       0.921027        25.0624 
 412   0.0000       0.925238        25.1770 
 413   0.0000       0.934082        25.4177 
 414   0.0000       0.935462        25.4552 
 415   0.0000       0.942694        25.6520 
 416   0.0000       0.947296        25.7772 
 417   0.0000       0.953279        25.9400 
 418   0.0000       0.956301        26.0223 
 419   0.0000       0.959922        26.1208 
 420   0.0000       0.965767        26.2799 
 421   0.0000       0.966312        26.2947 
 422   0.0000       0.971130        26.4258 
 423   0.0000       0.978185        26.6178 
 424   0.0000       0.984090        26.7784 
 425   0.0000       0.986968        26.8568 
 426   0.0000       0.990396        26.9500 
 427   0.0000       0.997577        27.1454 
 428   0.0000       1.000264        27.2186 
 429   0.0000       1.007139        27.4056 
 430   0.0000       1.008298        27.4372 
 431   0.0000       1.008944        27.4548 
 432   0.0000       1.014116        27.5955 
 433   0.0000       1.016524        27.6610 
 434   0.0000       1.022820        27.8323 
 435   0.0000       1.028145        27.9772 
 436   0.0000       1.030535        28.0423 
 437   0.0000       1.030719        28.0473 
 438   0.0000       1.037613        28.2349 
 439   0.0000       1.039555        28.2877 
 440   0.0000       1.047641        28.5078 
 441   0.0000       1.050926        28.5972 
 442   0.0000       1.055335        28.7171 
 443   0.0000       1.059417        28.8282 
 444   0.0000       1.063949        28.9515 
 445   0.0000       1.071897        29.1678 
 446   0.0000       1.078385        29.3443 
 447   0.0000       1.087279        29.5864 
 448   0.0000       1.090114        29.6635 
 449   0.0000       1.095909        29.8212 
 450   0.0000       1.116005        30.3680 
 451   0.0000       1.129640        30.7391 
 452   0.0000       1.146637        31.2016 
 453   0.0000       1.156332        31.4654 
 454   0.0000       1.156847        31.4794 
 455   0.0000       1.163985        31.6737 
 456   0.0000       1.169496        31.8236 
 457   0.0000       1.180324        32.1183 
 458   0.0000       1.185483        32.2586 
 459   0.0000       1.195658        32.5355 
 460   0.0000       1.199564        32.6418 
 461   0.0000       1.202928        32.7333 
 462   0.0000       1.209496        32.9121 
 463   0.0000       1.213597        33.0237 
 464   0.0000       1.245763        33.8989 
 465   0.0000       1.251172        34.0461 
 466   0.0000       1.280197        34.8359 
 467   0.0000       1.285326        34.9755 
 468   0.0000       1.291904        35.1545 
 469   0.0000       1.295286        35.2465 
 470   0.0000       1.300891        35.3990 
 471   0.0000       1.308102        35.5953 
 472   0.0000       1.310194        35.6522 
 473   0.0000       1.312561        35.7166 
 474   0.0000       1.315498        35.7965 
 475   0.0000       1.319537        35.9064 
 476   0.0000       1.326100        36.0850 
 477   0.0000       1.332026        36.2463 
 478   0.0000       1.336033        36.3553 
 479   0.0000       1.342171        36.5223 
 480   0.0000       1.346429        36.6382 
 481   0.0000       1.348936        36.7064 
 482   0.0000       1.356576        36.9143 
 483   0.0000       1.367533        37.2125 
 484   0.0000       1.370141        37.2834 
 485   0.0000       1.374930        37.4137 
 486   0.0000       1.385993        37.7148 
 487   0.0000       1.401869        38.1468 
 488   0.0000       1.407566        38.3018 
 489   0.0000       1.429795        38.9067 
 490   0.0000       1.440389        39.1950 
 491   0.0000       1.454665        39.5834 
 492   0.0000       1.462515        39.7970 
 493   0.0000       1.471201        40.0334 
 494   0.0000       1.491639        40.5895 
 495   0.0000       1.503794        40.9203 
 496   0.0000       1.513684        41.1894 
 497   0.0000       1.523576        41.4586 
 498   0.0000       1.526810        41.5466 
 499   0.0000       1.537041        41.8250 
 500   0.0000       1.548317        42.1319 
 501   0.0000       1.557878        42.3920 
 502   0.0000       1.561348        42.4864 
 503   0.0000       1.572214        42.7821 
 504   0.0000       1.594962        43.4011 
 505   0.0000       1.599808        43.5330 
 506   0.0000       1.603581        43.6357 
 507   0.0000       1.608027        43.7566 
 508   0.0000       1.609892        43.8074 
 509   0.0000       1.615738        43.9665 
 510   0.0000       1.642808        44.7031 
 511   0.0000       1.646377        44.8002 
 512   0.0000       1.653692        44.9993 
 513   0.0000       1.660327        45.1798 
 514   0.0000       1.667679        45.3798 
 515   0.0000       1.667990        45.3883 
 516   0.0000       1.684577        45.8397 
 517   0.0000       1.687430        45.9173 
 518   0.0000       1.688981        45.9595 
 519   0.0000       1.691263        46.0216 
 520   0.0000       1.692150        46.0457 
 521   0.0000       1.694127        46.0995 
 522   0.0000       1.698459        46.2174 
 523   0.0000       1.704872        46.3919 
 524   0.0000       1.707620        46.4667 
 525   0.0000       1.709235        46.5106 
 526   0.0000       1.712234        46.5922 
 527   0.0000       1.716588        46.7107 
 528   0.0000       1.719565        46.7917 
 529   0.0000       1.724196        46.9178 
 530   0.0000       1.725014        46.9400 
 531   0.0000       1.726898        46.9913 
 532   0.0000       1.727825        47.0165 
 533   0.0000       1.732761        47.1508 
 534   0.0000       1.735153        47.2159 
 535   0.0000       1.738698        47.3124 
 536   0.0000       1.745600        47.5002 
 537   0.0000       1.747346        47.5477 
 538   0.0000       1.751383        47.6576 
 539   0.0000       1.754905        47.7534 
 540   0.0000       1.786826        48.6220 
 541   0.0000       1.796007        48.8718 
 542   0.0000       1.850440        50.3530 
 543   0.0000       1.860116        50.6163 
 544   0.0000       1.866554        50.7915 
 545   0.0000       1.871637        50.9298 
 546   0.0000       1.873567        50.9823 
 547   0.0000       1.876620        51.0654 
 548   0.0000       1.887576        51.3636 
 549   0.0000       1.889415        51.4136 
 550   0.0000       1.891445        51.4688 
 551   0.0000       1.895230        51.5718 
 552   0.0000       1.905439        51.8496 
 553   0.0000       1.912665        52.0463 
 554   0.0000       1.927025        52.4370 
 555   0.0000       1.930068        52.5198 
 556   0.0000       1.937315        52.7170 
 557   0.0000       1.941312        52.8258 
 558   0.0000       1.945505        52.9399 
 559   0.0000       1.955286        53.2060 
 560   0.0000       1.987639        54.0864 
 561   0.0000       1.990495        54.1641 
 562   0.0000       1.993316        54.2409 
 563   0.0000       1.999141        54.3994 
 564   0.0000       2.000205        54.4284 
 565   0.0000       2.002218        54.4831 
 566   0.0000       2.003208        54.5101 
 567   0.0000       2.005219        54.5648 
 568   0.0000       2.010435        54.7067 
 569   0.0000       2.016392        54.8688 
 570   0.0000       2.019169        54.9444 
 571   0.0000       2.023954        55.0746 
 572   0.0000       2.026169        55.1349 
 573   0.0000       2.030827        55.2616 
 574   0.0000       2.035362        55.3850 
 575   0.0000       2.036119        55.4056 
 576   0.0000       2.037154        55.4338 
 577   0.0000       2.037408        55.4407 
 578   0.0000       2.039072        55.4860 
 579   0.0000       2.044023        55.6207 
 580   0.0000       2.045440        55.6592 
 581   0.0000       2.048290        55.7368 
 582   0.0000       2.056896        55.9710 
 583   0.0000       2.058858        56.0244 
 584   0.0000       2.064042        56.1654 
 585   0.0000       2.064201        56.1698 
 586   0.0000       2.067641        56.2634 
 587   0.0000       2.071050        56.3561 
 588   0.0000       2.072038        56.3830 
 589   0.0000       2.073326        56.4181 
 590   0.0000       2.075852        56.4868 
 591   0.0000       2.078758        56.5659 
 592   0.0000       2.081354        56.6365 
 593   0.0000       2.083938        56.7068 
 594   0.0000       2.086652        56.7807 
 595   0.0000       2.088273        56.8248 
 596   0.0000       2.090749        56.8922 
 597   0.0000       2.092265        56.9334 
 598   0.0000       2.094286        56.9884 
 599   0.0000       2.095632        57.0250 
 600   0.0000       2.100574        57.1595 
 601   0.0000       2.101747        57.1914 
 602   0.0000       2.107952        57.3603 
 603   0.0000       2.109940        57.4144 
 604   0.0000       2.114676        57.5433 
 605   0.0000       2.124434        57.8088 
 606   0.0000       2.127465        57.8913 
 607   0.0000       2.132255        58.0216 
 608   0.0000       2.134791        58.0906 
 609   0.0000       2.137310        58.1592 
 610   0.0000       2.145206        58.3740 
 611   0.0000       2.148174        58.4548 
 612   0.0000       2.148730        58.4699 
 613   0.0000       2.157153        58.6991 
 614   0.0000       2.157871        58.7187 
 615   0.0000       2.162924        58.8561 
 616   0.0000       2.165197        58.9180 
 617   0.0000       2.165691        58.9315 
 618   0.0000       2.172698        59.1221 
 619   0.0000       2.173233        59.1367 
 620   0.0000       2.178763        59.2872 
 621   0.0000       2.180561        59.3361 
 622   0.0000       2.182920        59.4003 
 623   0.0000       2.185128        59.4604 
 624   0.0000       2.186199        59.4895 
 625   0.0000       2.189038        59.5668 
 626   0.0000       2.196086        59.7585 
 627   0.0000       2.198438        59.8225 
 628   0.0000       2.204380        59.9842 
 629   0.0000       2.205362        60.0109 
 630   0.0000       2.208470        60.0955 
 631   0.0000       2.210319        60.1458 
 632   0.0000       2.213611        60.2354 
 633   0.0000       2.218241        60.3614 
 634   0.0000       2.222606        60.4802 
 635   0.0000       2.229648        60.6718 
 636   0.0000       2.233088        60.7654 
 637   0.0000       2.237622        60.8888 
 638   0.0000       2.239972        60.9527 
 639   0.0000       2.251520        61.2670 
 640   0.0000       2.255328        61.3706 
 641   0.0000       2.258799        61.4651 
 642   0.0000       2.263012        61.5797 
 643   0.0000       2.265276        61.6413 
 644   0.0000       2.268662        61.7334 
 645   0.0000       2.271439        61.8090 
 646   0.0000       2.274651        61.8964 
 647   0.0000       2.275682        61.9245 
 648   0.0000       2.281194        62.0745 
 649   0.0000       2.282542        62.1111 
 650   0.0000       2.286920        62.2303 
 651   0.0000       2.288047        62.2609 
 652   0.0000       2.289712        62.3062 
 653   0.0000       2.297257        62.5115 
 654   0.0000       2.299601        62.5753 
 655   0.0000       2.302014        62.6410 
 656   0.0000       2.306625        62.7665 
 657   0.0000       2.309208        62.8368 
 658   0.0000       2.311145        62.8895 
 659   0.0000       2.313710        62.9592 
 660   0.0000       2.314271        62.9745 
 661   0.0000       2.316613        63.0382 
 662   0.0000       2.321756        63.1782 
 663   0.0000       2.323930        63.2373 
 664   0.0000       2.326624        63.3107 
 665   0.0000       2.335025        63.5393 
 666   0.0000       2.335699        63.5576 
 667   0.0000       2.339089        63.6499 
 668   0.0000       2.340908        63.6993 
 669   0.0000       2.342933        63.7544 
 670   0.0000       2.348390        63.9029 
 671   0.0000       2.349789        63.9410 
 672   0.0000       2.352361        64.0110 
 673   0.0000       2.354199        64.0610 
 674   0.0000       2.354707        64.0748 
 675   0.0000       2.357731        64.1571 
 676   0.0000       2.360055        64.2204 
 677   0.0000       2.362267        64.2805 
 678   0.0000       2.363753        64.3210 
 679   0.0000       2.364982        64.3544 
 680   0.0000       2.365464        64.3676 
 681   0.0000       2.366650        64.3998 
 682   0.0000       2.368200        64.4420 
 683   0.0000       2.368942        64.4622 
 684   0.0000       2.370093        64.4935 
 685   0.0000       2.370620        64.5079 
 686   0.0000       2.371948        64.5440 
 687   0.0000       2.372629        64.5625 
 688   0.0000       2.376053        64.6557 
 689   0.0000       2.376584        64.6701 
 690   0.0000       2.378469        64.7214 
 691   0.0000       2.379618        64.7527 
 692   0.0000       2.380522        64.7773 
 693   0.0000       2.381344        64.7997 
 694   0.0000       2.383015        64.8451 
 695   0.0000       2.383723        64.8644 
 696   0.0000       2.384978        64.8985 
 697   0.0000       2.388869        65.0044 
 698   0.0000       2.389344        65.0174 
 699   0.0000       2.390340        65.0445 
 700   0.0000       2.392850        65.1128 
 701   0.0000       2.393115        65.1200 
 702   0.0000       2.396329        65.2074 
 703   0.0000       2.396951        65.2244 
 704   0.0000       2.399245        65.2868 
 705   0.0000       2.400154        65.3115 
 706   0.0000       2.402350        65.3713 
 707   0.0000       2.405657        65.4613 
 708   0.0000       2.408692        65.5438 
 709   0.0000       2.413195        65.6664 
 710   0.0000       2.420118        65.8548 
 711   0.0000       2.422337        65.9151 
 712   0.0000       2.424537        65.9750 
 713   0.0000       2.430033        66.1246 
 714   0.0000       2.430237        66.1301 
 715   0.0000       2.433293        66.2133 
 716   0.0000       2.435793        66.2813 
 717   0.0000       2.438839        66.3642 
 718   0.0000       2.441956        66.4490 
 719   0.0000       2.443964        66.5036 
 720   0.0000       2.445286        66.5396 
 721   0.0000       2.447777        66.6074 
 722   0.0000       2.452897        66.7467 
 723   0.0000       2.455050        66.8053 
 724   0.0000       2.456839        66.8540 
 725   0.0000       2.460652        66.9577 
 726   0.0000       2.461628        66.9843 
 727   0.0000       2.465611        67.0927 
 728   0.0000       2.468659        67.1756 
 729   0.0000       2.470841        67.2350 
 730   0.0000       2.476490        67.3887 
 731   0.0000       2.479566        67.4724 
 732   0.0000       2.481124        67.5148 
 733   0.0000       2.486529        67.6619 
 734   0.0000       2.489504        67.7428 
 735   0.0000       2.491486        67.7968 
 736   0.0000       2.493657        67.8559 
 737   0.0000       2.498277        67.9816 
 738   0.0000       2.501104        68.0585 
 739   0.0000       2.503282        68.1178 
 740   0.0000       2.506912        68.2165 
 741   0.0000       2.508474        68.2590 
 742   0.0000       2.510537        68.3152 
 743   0.0000       2.512787        68.3764 
 744   0.0000       2.513580        68.3980 
 745   0.0000       2.516877        68.4877 
 746   0.0000       2.520611        68.5893 
 747   0.0000       2.523666        68.6724 
 748   0.0000       2.526616        68.7527 
 749   0.0000       2.530952        68.8707 
 750   0.0000       2.534555        68.9687 
 751   0.0000       2.538394        69.0732 
[...]
      f+2     :     0.006754
      f-2     :     0.005597
      f+3     :     0.003318
      f-3     :     0.002319
 48 H s       :     0.821834  s :     0.821834
      pz      :     0.012292  p :     0.061025
      px      :     0.021571
      py      :     0.027161
 49 N s       :     3.009279  s :     3.009279
      pz      :     1.241862  p :     3.766081
      px      :     1.265204
      py      :     1.259015
      dz2     :     0.031233  d :     0.154262
      dxz     :     0.041187
      dyz     :     0.034721
      dx2y2   :     0.008654
      dxy     :     0.038467
      f0      :     0.002213  f :     0.009632
      f+1     :     0.001258
      f-1     :     0.001234
      f+2     :     0.001517
      f-2     :     0.001525
      f+3     :     0.001152
      f-3     :     0.000733
 50 H s       :     0.720117  s :     0.720117
      pz      :     0.019044  p :     0.141909
      px      :     0.048117
      py      :     0.074748
 51 H s       :     0.821884  s :     0.821884
      pz      :     0.021547  p :     0.061079
      px      :     0.024218
      py      :     0.015314
 52 H s       :     0.722683  s :     0.722683
      pz      :     0.035772  p :     0.122638
      px      :     0.042614
      py      :     0.044252
 53 H s       :     0.821459  s :     0.821459
      pz      :     0.023324  p :     0.061035
      px      :     0.014293
      py      :     0.023419
 54 H s       :     0.724110  s :     0.724110
      pz      :     0.043898  p :     0.136827
      px      :     0.046901
      py      :     0.046027
 55 C s       :     2.850918  s :     2.850918
      pz      :     1.046473  p :     3.092746
      px      :     0.985548
      py      :     1.060725
      dz2     :     0.030091  d :     0.318058
      dxz     :     0.084092
      dyz     :     0.078894
      dx2y2   :     0.044089
      dxy     :     0.080892
      f0      :     0.004776  f :     0.038274
      f+1     :     0.007307
      f-1     :     0.003112
      f+2     :     0.004504
      f-2     :     0.006434
      f+3     :     0.007183
      f-3     :     0.004958
 56 H s       :     0.821769  s :     0.821769
      pz      :     0.022221  p :     0.061076
      px      :     0.020726
      py      :     0.018130
 57 N s       :     3.009080  s :     3.009080
      pz      :     1.261295  p :     3.766369
      px      :     1.247087
      py      :     1.257987
      dz2     :     0.014497  d :     0.153934
      dxz     :     0.038557
      dyz     :     0.040402
      dx2y2   :     0.021692
      dxy     :     0.038786
      f0      :     0.001284  f :     0.009592
      f+1     :     0.001660
      f-1     :     0.000903
      f+2     :     0.001060
      f-2     :     0.001740
      f+3     :     0.001848
      f-3     :     0.001096
 58 H s       :     0.719629  s :     0.719629
      pz      :     0.042382  p :     0.136703
      px      :     0.049589
      py      :     0.044732
 59 H s       :     0.820815  s :     0.820815
      pz      :     0.018415  p :     0.061082
      px      :     0.017933
      py      :     0.024733
 60 H s       :     0.720622  s :     0.720622
      pz      :     0.050495  p :     0.131452
      px      :     0.022269
      py      :     0.058688


                      *****************************
                      * MAYER POPULATION ANALYSIS *
                      *****************************

  NA   - Mulliken gross atomic population
  ZA   - Total nuclear charge
  QA   - Mulliken gross atomic charge
  VA   - Mayer's total valence
  BVA  - Mayer's bonded valence
  FA   - Mayer's free valence

  ATOM       NA         ZA         QA         VA         BVA        FA
  0 C      6.2514     6.0000    -0.2514     3.8930     3.8930    -0.0000
  1 N      7.2953     7.0000    -0.2953     3.2207     3.2207    -0.0000
  2 H      0.8642     1.0000     0.1358     0.9649     0.9649     0.0000
  3 H      0.8578     1.0000     0.1422     0.9647     0.9647    -0.0000
  4 H      0.8604     1.0000     0.1396     0.9637     0.9637     0.0000
  5 H      0.7289     1.0000     0.2711     1.0101     1.0101    -0.0000
  6 H      0.7351     1.0000     0.2649     1.0041     1.0041    -0.0000
  7 H      0.7102     1.0000     0.2898     0.9912     0.9912    -0.0000
  8 Pb    21.0106    22.0000     0.9894     1.7316     1.7316     0.0000
  9 Cl    17.6042    17.0000    -0.6042     0.7032     0.7032     0.0000
 10 Cl    17.7122    17.0000    -0.7122     0.5187     0.5187     0.0000
 11 Cl    17.6495    17.0000    -0.6495     0.6278     0.6278     0.0000
 12 Cl    17.7036    17.0000    -0.7036     0.5416     0.5416    -0.0000
 13 Cl    17.6664    17.0000    -0.6664     0.6045     0.6045     0.0000
 14 Cl    17.5852    17.0000    -0.5852     0.7245     0.7245    -0.0000
 15 N      7.2694     7.0000    -0.2694     3.3794     3.3794    -0.0000
 16 C      6.2425     6.0000    -0.2425     3.8475     3.8475    -0.0000
 17 H      0.7263     1.0000     0.2737     1.0045     1.0045    -0.0000
 18 H      0.6965     1.0000     0.3035     0.9574     0.9574    -0.0000
 19 H      0.8509     1.0000     0.1491     0.9797     0.9797    -0.0000
 20 H      0.8630     1.0000     0.1370     1.0018     1.0018    -0.0000
 21 H      0.8779     1.0000     0.1221     0.9716     0.9716    -0.0000
 22 H      0.7107     1.0000     0.2893     0.9505     0.9505     0.0000
 23 Cl    17.6666    17.0000    -0.6666     0.6062     0.6062    -0.0000
 24 Cl    17.7036    17.0000    -0.7036     0.5421     0.5421    -0.0000
 25 Pb    21.0051    22.0000     0.9949     1.7320     1.7320    -0.0000
 26 N      7.2801     7.0000    -0.2801     3.3600     3.3600    -0.0000
 27 C      6.2362     6.0000    -0.2362     3.8393     3.8393     0.0000
 28 H      0.7048     1.0000     0.2952     0.9724     0.9724     0.0000
 29 H      0.7069     1.0000     0.2931     0.9434     0.9434    -0.0000
 30 H      0.8786     1.0000     0.1214     0.9703     0.9703     0.0000
 31 H      0.8493     1.0000     0.1507     0.9795     0.9795    -0.0000
 32 H      0.8618     1.0000     0.1382     1.0032     1.0032     0.0000
 33 H      0.7276     1.0000     0.2724     1.0058     1.0058     0.0000
 34 Cl    17.6190    17.0000    -0.6190     0.6820     0.6820     0.0000
 35 H      0.8614     1.0000     0.1386     0.9649     0.9649    -0.0000
 36 H      0.7345     1.0000     0.2655     1.0104     1.0104     0.0000
 37 H      0.8569     1.0000     0.1431     0.9629     0.9629     0.0000
 38 C      6.2502     6.0000    -0.2502     3.8836     3.8836     0.0000
 39 N      7.2849     7.0000    -0.2849     3.2400     3.2400     0.0000
 40 Cl    17.6550    17.0000    -0.6550     0.6192     0.6192    -0.0000
 41 H      0.7256     1.0000     0.2744     1.0086     1.0086     0.0000
 42 H      0.7206     1.0000     0.2794     0.9928     0.9928     0.0000
 43 H      0.8566     1.0000     0.1434     0.9636     0.9636    -0.0000
 44 Cl    17.7174    17.0000    -0.7174     0.5100     0.5100    -0.0000
 45 H      0.8654     1.0000     0.1346     0.9708     0.9708    -0.0000
 46 H      0.7290     1.0000     0.2710     1.0220     1.0220    -0.0000
 47 C      6.2457     6.0000    -0.2457     3.8961     3.8961    -0.0000
 48 H      0.8632     1.0000     0.1368     0.9645     0.9645     0.0000
 49 N      7.2853     7.0000    -0.2853     3.2021     3.2021    -0.0000
 50 H      0.7341     1.0000     0.2659     1.0197     1.0197     0.0000
 51 H      0.8636     1.0000     0.1364     0.9644     0.9644    -0.0000
 52 H      0.7270     1.0000     0.2730     0.9864     0.9864     0.0000
 53 H      0.8633     1.0000     0.1367     0.9651     0.9651    -0.0000
 54 H      0.7197     1.0000     0.2803     0.9890     0.9890    -0.0000
 55 C      6.2454     6.0000    -0.2454     3.8937     3.8937    -0.0000
 56 H      0.8631     1.0000     0.1369     0.9643     0.9643    -0.0000
 57 N      7.2856     7.0000    -0.2856     3.2043     3.2043    -0.0000
 58 H      0.7311     1.0000     0.2689     1.0211     1.0211    -0.0000
 59 H      0.8646     1.0000     0.1354     0.9704     0.9704    -0.0000
 60 H      0.7391     1.0000     0.2609     1.0211     1.0211    -0.0000

  Mayer bond orders larger than 0.1
B(  0-C ,  1-N ) :   0.9343 B(  0-C ,  2-H ) :   0.9752 B(  0-C ,  3-H ) :   0.9747 
B(  0-C ,  4-H ) :   0.9746 B(  1-N ,  5-H ) :   0.7883 B(  1-N ,  6-H ) :   0.8182 
B(  1-N ,  7-H ) :   0.7829 B(  5-H , 11-Cl) :   0.2248 B(  6-H ,  9-Cl) :   0.1836 
B(  7-H , 10-Cl) :   0.2038 B(  8-Pb,  9-Cl) :   0.4919 B(  8-Pb, 10-Cl) :   0.1857 
B(  8-Pb, 11-Cl) :   0.3732 B(  8-Pb, 12-Cl) :   0.1384 B(  8-Pb, 13-Cl) :   0.2578 
B(  8-Pb, 14-Cl) :   0.2771 B( 10-Cl, 52-H ) :   0.1488 B( 12-Cl, 17-H ) :   0.1927 
B( 12-Cl, 46-H ) :   0.2520 B( 13-Cl, 18-H ) :   0.1287 B( 13-Cl, 50-H ) :   0.2351 
B( 14-Cl, 25-Pb) :   0.3289 B( 15-N , 16-C ) :   0.9309 B( 15-N , 17-H ) :   0.8097 
B( 15-N , 18-H ) :   0.8207 B( 15-N , 22-H ) :   0.8700 B( 16-C , 19-H ) :   0.9695 
B( 16-C , 20-H ) :   0.9666 B( 16-C , 21-H ) :   0.9703 B( 23-Cl, 25-Pb) :   0.2592 
B( 23-Cl, 28-H ) :   0.1542 B( 23-Cl, 60-H ) :   0.2182 B( 24-Cl, 25-Pb) :   0.1452 
B( 24-Cl, 33-H ) :   0.1985 B( 24-Cl, 58-H ) :   0.2406 B( 25-Pb, 34-Cl) :   0.4624 
B( 25-Pb, 40-Cl) :   0.3430 B( 25-Pb, 44-Cl) :   0.1836 B( 26-N , 27-C ) :   0.9262 
B( 26-N , 28-H ) :   0.8137 B( 26-N , 29-H ) :   0.8690 B( 26-N , 33-H ) :   0.8067 
B( 27-C , 30-H ) :   0.9711 B( 27-C , 31-H ) :   0.9693 B( 27-C , 32-H ) :   0.9658 
B( 34-Cl, 36-H ) :   0.1942 B( 35-H , 38-C ) :   0.9742 B( 36-H , 39-N ) :   0.8140 
B( 37-H , 38-C ) :   0.9734 B( 38-C , 39-N ) :   0.9319 B( 38-C , 43-H ) :   0.9740 
B( 39-N , 41-H ) :   0.7849 B( 39-N , 42-H ) :   0.8132 B( 40-Cl, 41-H ) :   0.2245 
B( 42-H , 44-Cl) :   0.1723 B( 44-Cl, 54-H ) :   0.1761 B( 45-H , 47-C ) :   0.9750 
B( 46-H , 49-N ) :   0.7689 B( 47-C , 48-H ) :   0.9757 B( 47-C , 49-N ) :   0.9402 
B( 47-C , 51-H ) :   0.9749 B( 49-N , 50-H ) :   0.7823 B( 49-N , 52-H ) :   0.8304 
B( 53-H , 55-C ) :   0.9758 B( 54-H , 57-N ) :   0.8081 B( 55-C , 56-H ) :   0.9748 
B( 55-C , 57-N ) :   0.9377 B( 55-C , 59-H ) :   0.9751 B( 57-N , 58-H ) :   0.7785 
B( 57-N , 60-H ) :   0.7992 

-------
TIMINGS
-------

Total SCF time: 0 days 0 hours 21 min 56 sec 

Total time                  ....    1316.572 sec
Sum of individual times     ....     756.297 sec  ( 57.4%)

Fock matrix formation       ....     692.900 sec  ( 52.6%)
  Coulomb formation         ....     653.652 sec  ( 94.3% of F)
  Split-RI-J                ....      43.073 sec  (  6.2% of F)
  Chain of spheres X        ....    1149.247 sec  (165.9% of F)
  XC integration            ....      39.163 sec  (  5.7% of F)
    Basis function eval.    ....      11.592 sec  ( 29.6% of XC)
    Density eval.           ....      12.482 sec  ( 31.9% of XC)
    XC-Functional eval.     ....       1.271 sec  (  3.2% of XC)
    XC-Potential eval.      ....      13.280 sec  ( 33.9% of XC)
Diagonalization             ....       1.668 sec  (  0.1%)
Density matrix formation    ....       0.492 sec  (  0.0%)
Population analysis         ....       5.202 sec  (  0.4%)
Initial guess               ....       1.557 sec  (  0.1%)
Orbital Transformation      ....       0.000 sec  (  0.0%)
Orbital Orthonormalization  ....       1.412 sec  (  0.1%)
DIIS solution               ....       0.536 sec  (  0.0%)
SOSCF solution              ....       1.113 sec  (  0.1%)
Grid generation             ....      52.829 sec  (  4.0%)

------------------------------------------------------------------------------
                              ORCA MP2 CALCULATION
------------------------------------------------------------------------------


-------------
RI-MP2 ENERGY
-------------
Dimension of the basis                    ... 1095
Memory devoted to MP2                     ... 4000 MB   
Data format for buffers                   ... DOUBLE
Compression type for matrix containers    ... UNCOMPRESSED
Overall scaling of the MP2 energy         ...   2.700e-01 Eh
Calculating two index integrals           ... done (    0.095 sec)
Cholesky decomposition of V**-1           ... done (    1.092 sec)

-----------------
RI-TRANSFORMATION (AUX index driven)
-----------------

Dimension of the orbital-basis         ... 1095
Dimension of the aux-basis             ... 1897
Transformation of internal/external MOs...    0- 172 to  173-1094
Number Format for Storage              ... Double (8 Byte)
Integral mode                          ... Direct

First Phase: integral generation and transformation of MO indices
  Aux angular momentum 0               ... done (   36.671 sec)
  Aux angular momentum 1               ... done (   42.570 sec)
  Aux angular momentum 2               ... done (   56.107 sec)
  Aux angular momentum 3               ... done (   23.597 sec)
  Aux angular momentum 4               ... done (   24.258 sec)
Closing buffer VIA ( 2.25 GB; CompressionRatio= 1.00)
  Phase 1 completed in   183.335 sec
Second Phase: sorting and transformation of aux index

IA-Transformation
Memory available                       ... 3892 MB 
Max. # MO pairs treated in a batch     ... 173    
# of internal orbitals                 ... 173
# batches for internal orbitals        ... 1
Closing buffer IAV ( 2.25 GB; CompressionRatio= 1.00)
(ia|v) transformation done in   106.988 sec

  Phase 2 completed in   108.716 sec
RI-Integral transformation completed in   292.052 sec
Opening buffers                              ... done

Starting loop over batches of integrals:

Operator 0  - window                       ... (  0-172)x(173-1094)
Operator 0  - Memory available             ...  4000 MB
Operator 0  - Memory needed per MO         ...  13.3 MB
Operator 0  - Number of orbitals per batch ... 173
Operator 0  - Number of batches            ... 1

OPERATOR  0   PASS   0:  MOs     0 ...  172
  Reading integrals       ... ok
  Internal MO   2
  Internal MO   5
  Internal MO   8
  Internal MO  11
  Internal MO  14
  Internal MO  17
  Internal MO  20
  Internal MO  23
  Internal MO  26
  Internal MO  29
  Internal MO  32
  Internal MO  35
  Internal MO  38
  Internal MO  41
  Internal MO  44
  Internal MO  47
  Internal MO  50
  Internal MO  53
  Internal MO  56
  Internal MO  59
  Internal MO  62
  Internal MO  65
  Internal MO  68
  Internal MO  71
  Internal MO  74
  Internal MO  77
  Internal MO  80
  Internal MO  83
  Internal MO  86
  Internal MO  89
  Internal MO  92
  Internal MO  95
  Internal MO  98
  Internal MO 101
  Internal MO 104
  Internal MO 107
  Internal MO 110
  Internal MO 113
  Internal MO 116
  Internal MO 119
  Internal MO 122
  Internal MO 125
  Internal MO 128
  Internal MO 131
  Internal MO 134
  Internal MO 137
  Internal MO 140
  Internal MO 143
  Internal MO 146
  Internal MO 149
  Internal MO 152
  Internal MO 155
  Internal MO 158
  Internal MO 161
  Internal MO 164
  Internal MO 167
  Internal MO 170
Time spent in pair loops =  4540.244 sec

-----------------------------------------------
 RI-MP2 CORRELATION ENERGY:     -2.218259694 Eh
-----------------------------------------------


-------
TIMINGS
-------

Total time                : 4833.521 sec
Integral trafo            :  292.064 sec (  6.0%)
I/O of integrals          :    1.275 sec (  0.0%)
K(i,j) Operators          : 4277.903 sec ( 88.5%)
T(i,j) pair energies      :  214.599 sec (  4.4%)
V-calculation             :    0.095 sec (  0.0%)
V**(-1/2)                 :    1.092 sec (  0.0%)
Gamma(ia|P)               :    0.000 sec (  0.0%)
Gamma-Trafo               :    0.000 sec (  0.0%)
D(virtual)                :    0.000 sec (  0.0%)
D(internal)               :    0.000 sec (  0.0%)
W(virtual)                :    0.000 sec (  0.0%)
W(internal)               :    0.000 sec (  0.0%)
L(virtual)                :    0.000 sec (  0.0%)
L(internal)               :    0.000 sec (  0.0%)
G(D)                      :    0.000 sec (  0.0%)
G(Z)                      :    0.000 sec (  0.0%)
Z-Vector Solution         :    0.000 sec (  0.0%)
Z-Vector Solution         :    0.000 sec (  0.0%)
3-Index Derivative 
+ Separable RIJ part      :    0.000 sec (  0.0%)
2-Index Derivative 
+ Separable RIJ part      :    0.000 sec (  0.0%)
Separable Gradient (COSX) :    0.000 sec (  0.0%)


---------------------------------------
MP2 TOTAL ENERGY:    -6025.865257936 Eh
---------------------------------------

Entering the calculation of the dispersion correction...

Checking the input atom types...

Done


-------------------------------------------------------------------------------
                          DFT DISPERSION CORRECTION                            
                                                                               
                                DFTD3 V2.1  Rev 6                               
                          USING Becke-Johnson damping                          
-------------------------------------------------------------------------------
The B2PLYP functional is recognized
Active option DFTDOPT                   ...         4   

molecular C6(AA) [au] = 68461.551726 


            DFT-D V3
 parameters
 s6 scaling factor         :     0.6400 
 a1 scaling factor         :     0.3065 
 s8 scaling factor         :     0.9147 
 a2 scaling factor         :     5.0570 
 ad hoc parameters k1-k3   :    16.0000     1.3333    -4.0000 

 Edisp/kcal,au: -50.315546487342  -0.080182918665 
 E6   /kcal   : -25.037097767 
 E8   /kcal   : -25.278448720 
 % E8         :  50.239837357 

-------------------------   ----------------
Dispersion correction           -0.080182919
-------------------------   ----------------


-------------------------   --------------------
FINAL SINGLE POINT ENERGY     -6025.945440854450
-------------------------   --------------------


                            ***************************************
                            *     ORCA property calculations      *
                            ***************************************


  WARNING: The energy has been calculated at the MP2 level but the densities
           used in the property calculations are still SCF densities
           MP2 response densities have not been calculated 
           use %mp2 Density relaxed end
           or  %mp2 Density unrelaxed end

                                    ---------------------
                                    Active property flags
                                    ---------------------
   (+) Dipole Moment


------------------------------------------------------------------------------
                       ORCA ELECTRIC PROPERTIES CALCULATION
------------------------------------------------------------------------------

Dipole Moment Calculation                       ... on
Quadrupole Moment Calculation                   ... off
Polarizability Calculation                      ... off
GBWName                                         ... Pb2Cl11_6NH3CH3_-1_mp2_sp2_7.orca.gbw
Electron density file                           ... Pb2Cl11_6NH3CH3_-1_mp2_sp2_7.orca.scfp.tmp

-------------
DIPOLE MOMENT
-------------
                                X             Y             Z
Electronic contribution:    -27.62619       9.90016      34.80104
Nuclear contribution   :     28.83585     -10.31717     -36.33032
                        -----------------------------------------
Total Dipole Moment    :      1.20966      -0.41701      -1.52928
                        -----------------------------------------
Magnitude (a.u.)       :      1.99396
Magnitude (Debye)      :      5.06825


Timings for individual modules:

Sum of individual times         ...     6170.547 sec (= 102.842 min)
GTO integral calculation        ...       11.512 sec (=   0.192 min)   0.2 %
SCF iterations                  ...     1323.613 sec (=  22.060 min)  21.5 %
MP2 module                      ...     4835.422 sec (=  80.590 min)  78.4 %
                             ****ORCA TERMINATED NORMALLY****
TOTAL RUN TIME: 0 days 1 hours 42 minutes 52 seconds 581 msec
