
                                 *****************
                                 * O   R   C   A *
                                 *****************

           --- An Ab Initio, DFT and Semiempirical electronic structure package ---

                  #######################################################
                  #                        -***-                        #
                  #  Department of molecular theory and spectroscopy    #
                  #              Directorship: Frank Neese              #
                  # Max Planck Institute for Chemical Energy Conversion #
                  #                  D-45470 Muelheim/Ruhr              #
                  #                       Germany                       #
                  #                                                     #
                  #                  All rights reserved                #
                  #                        -***-                        #
                  #######################################################


                         Program Version 3.0.3 - RELEASE   -


 With contributions from (in alphabetic order):
   Ute Becker             : Parallelization
   Dmytro Bykov           : SCF Hessian
   Dmitry Ganyushin       : Spin-Orbit,Spin-Spin,Magnetic field MRCI
   Andreas Hansen         : Spin unrestricted coupled pair/coupled cluster methods
   Dimitrios Liakos       : Extrapolation schemes; parallel MDCI
   Robert Izsak           : Overlap fitted RIJCOSX, COSX-SCS-MP3
   Christian Kollmar      : KDIIS, OOCD, Brueckner-CCSD(T), CCSD density
   Simone Kossmann        : Meta GGA functionals, TD-DFT gradient, OOMP2, MP2 Hessian
   Taras Petrenko         : DFT Hessian,TD-DFT gradient, ASA and ECA modules, normal mode analysis, Resonance Raman, ABS, FL, XAS/XES, NRVS
   Christoph Reimann      : Effective Core Potentials
   Michael Roemelt        : Restricted open shell CIS
   Christoph Riplinger    : Improved optimizer, TS searches, QM/MM, DLPNO-CCSD
   Barbara Sandhoefer     : DKH picture change effects
   Igor Schapiro          : Molecular dynamics
   Kantharuban Sivalingam : CASSCF convergence, NEVPT2
   Boris Wezisla          : Elementary symmetry handling
   Frank Wennmohs         : Technical directorship


 We gratefully acknowledge several colleagues who have allowed us to
 interface, adapt or use parts of their codes:
   Stefan Grimme, W. Hujo, H. Kruse, T. Risthaus : VdW corrections, initial TS optimization,
                                                   DFT functionals, gCP
   Ed Valeev                                     : LibInt (2-el integral package), F12 methods
   Garnet Chan, S. Sharma, R. Olivares           : DMRG
   Ulf Ekstrom                                   : XCFun DFT Library
   Mihaly Kallay                                 : mrcc  (arbitrary order and MRCC methods)
   Andreas Klamt, Michael Diedenhofen            : otool_cosmo (COSMO solvation model)
   Frank Weinhold                                : gennbo (NPA and NBO analysis)
   Christopher J. Cramer and Donald G. Truhlar   : smd solvation model


 Your calculation uses the libint2 library for the computation of 2-el integrals
 For citations please refer to: http://libint.valeyev.net

 This ORCA versions uses:
   CBLAS   interface :  Fast vector & matrix operations
   LAPACKE interface :  Fast linear algebra routines
   SCALAPACK package :  Parallel linear algebra routines


Your calculation utilizes the basis: Ahlrichs-TZV
Cite in your paper:
H - Kr: A. Schaefer, H. Horn and R. Ahlrichs, J. Chem. Phys. 97, 2571 (1992).

The def2-TZV basis will be loaded
Cite in your paper:
 	F. Weigend, R. Ahlrichs, Phys. Chem. Chem. Phys. 2005, 7, 3297.

Your calculation utilizes the atom-pairwise dispersion correction
with the Becke-Johnson damping scheme (D3BJ)
Cite in your paper:
S.Grimme, S.Ehrlich, L.Goerigk, J Comput Chem, (2011), 32, 1456–1465 
S.Grimme, J.Antony, S.Ehrlich and H.Krieg, J.Chem.Phys., 132, (2010), 154104 
   

================================================================================
                                        WARNINGS
                       Please study these warnings very carefully!
================================================================================

WARNING: The RI method has been chosen with no auxiliary basis (AUX or GTOAUX in BASIS block)
        Standard TZV/J expansion basis used (GTOAUX=TZV_J)

Now building the actual basis set
cite the ECPs for Pb [SD(60,MDF)] as follows:
  B. Metz, H. Stoll, M. Dolg, J. Chem. Phys. 113, 2563 (2000).

ECP parameters for Pb [SD(60,MDF)] have been obtained from:
  pseudopotential library of the Stuttgart/Cologne group
  http://www.theochem.uni-stuttgart.de/pseudopotentials/

cite the ECP basis sets for Pb [DEF2-TZVP] as follows:
  F. Weigend, R. Ahlrichs; Phys. Chem. Chem. Phys. 7, 3297(2005).

ECP basis sets for Pb [DEF2-TZVP] have been obtained from:
  Turbomole basis set library
  ftp://ftp.chemie.uni-karlsruhe.de/pub/basen/



INFO   : the flag for use of LIBINT has been found!

================================================================================
                                       INPUT FILE
================================================================================
NAME = PbMACl3_mp2_md_5.orca
|  1> ! RIJCOSX RI-B2PLYP D3BJ def2-TZVP ECP{def2-TZVP} TIGHTSCF Grid5 FinalGrid6 SlowConv MORead
|  2> %method
|  3>  RunTyp Gradient
|  4>  end
|  5> %maxcore 1000
|  6> %moinp "previous.gbw"
|  7> *xyz 0 1
|  8> C -0.350735 0.477716 -1.303650 
|  9> N -0.560900 -0.264215 -2.637980 
| 10> H -0.321965 0.316550 -3.492030 
| 11> H -1.549820 -0.353103 -2.857670 
| 12> H -0.131604 -1.069140 -2.656630 
| 13> H -1.071980 1.316670 -1.312580 
| 14> H 0.675011 0.861695 -1.265050 
| 15> H -0.619776 -0.281935 -0.528256 
| 16> Pb -3.093440 -2.560310 -2.295120 
| 17> Cl -0.662439 -3.196040 -2.306970 
| 18> Cl -3.418460 -0.211765 -1.745800 
| 19> Cl -4.723740 -4.093110 -1.375100 
| 20> *
| 21> 
| 22>                          ****END OF INPUT****
================================================================================

                     *******************************
                     * Energy+Gradient Calculation *
                     *******************************

---------------------------------
CARTESIAN COORDINATES (ANGSTROEM)
---------------------------------
  C     -0.350735    0.477716   -1.303650
  N     -0.560900   -0.264215   -2.637980
  H     -0.321965    0.316550   -3.492030
  H     -1.549820   -0.353103   -2.857670
  H     -0.131604   -1.069140   -2.656630
  H     -1.071980    1.316670   -1.312580
  H      0.675011    0.861695   -1.265050
  H     -0.619776   -0.281935   -0.528256
  Pb    -3.093440   -2.560310   -2.295120
  Cl    -0.662439   -3.196040   -2.306970
  Cl    -3.418460   -0.211765   -1.745800
  Cl    -4.723740   -4.093110   -1.375100

----------------------------
CARTESIAN COORDINATES (A.U.)
----------------------------
  NO LB      ZA    FRAG    MASS        X           Y           Z
   0 C     6.0000    0    12.011         -0.662793095580870          0.902752409792325         -2.463541474486440
   1 N     7.0000    0    14.007         -1.059947388516430         -0.499293990474003         -4.985059746761584
   2 H     1.0000    0     1.008         -0.608425674707956          0.598192807692772         -6.598980351437029
   3 H     1.0000    0     1.008         -2.928735356873834         -0.667267967065996         -5.400213681122744
   4 H     1.0000    0     1.008         -0.248695518128572         -2.020381798820567         -5.020303139159214
   5 H     1.0000    0     1.008         -2.025748621040903          2.488145708750094         -2.480416728862357
   6 H     1.0000    0     1.008          1.275585927384318          1.628367560969273         -2.390598045717079
   7 H     1.0000    0     1.008         -1.171206904377178         -0.532779937567088         -0.998259168600705
   8 Pb   22.0000*   0   207.200  -5.845754411717357  -4.838284717939920  -4.337148244485343
   9 Cl   17.0000    0    35.453         -1.251828290428660         -6.039640313057677         -4.359541499172311
  10 Cl   17.0000    0    35.453         -6.459953199764442         -0.400177854749834         -3.299083884599721
  11 Cl   17.0000    0    35.453         -8.926574927849174         -7.734856936014415         -2.598562406755113
* core charge reduced due to ECP

--------------------------------
INTERNAL COORDINATES (ANGSTROEM)
--------------------------------
 C      0   0   0   0.000000     0.000     0.000
 N      1   0   0   1.541125     0.000     0.000
 H      2   1   0   1.060085   113.769     0.000
 H      2   1   3   1.016921   111.207   253.744
 H      2   1   3   0.912440   112.224   127.287
 H      1   2   3   1.106399   105.614    64.210
 H      1   2   3   1.095940   109.075   305.825
 H      1   2   3   1.118342   103.915   181.497
 Pb     4   2   1   2.751543   124.855   264.078
 Cl     5   2   1   2.219854   136.844    97.402
 Cl     4   2   1   2.179001   135.894   341.639
 Cl     9   4   2   2.419461   164.571   110.819

---------------------------
INTERNAL COORDINATES (A.U.)
---------------------------
 C      0   0   0   0.000000     0.000     0.000
 N      1   0   0   2.912305     0.000     0.000
 H      2   1   0   2.003270   113.769     0.000
 H      2   1   3   1.921701   111.207   253.744
 H      2   1   3   1.724262   112.224   127.287
 H      1   2   3   2.090790   105.614    64.210
 H      1   2   3   2.071027   109.075   305.825
 H      1   2   3   2.113360   103.915   181.497
 Pb     4   2   1   5.199662   124.855   264.078
 Cl     5   2   1   4.194916   136.844    97.402
 Cl     4   2   1   4.117716   135.894   341.639
 Cl     9   4   2   4.572118   164.571   110.819

---------------------
BASIS SET INFORMATION
---------------------
There are 5 groups of distinct atoms

 Group   1 Type C   : 11s6p2d1f contracted to 5s3p2d1f pattern {62111/411/11/1}
 Group   2 Type N   : 11s6p2d1f contracted to 5s3p2d1f pattern {62111/411/11/1}
 Group   3 Type H   : 5s1p contracted to 3s1p pattern {311/1}
 Group   4 Type Pb  : 10s9p8d2f contracted to 6s5p3d2f pattern {421111/33111/611/11}
 Group   5 Type Cl  : 14s9p3d1f contracted to 5s5p2d1f pattern {73211/51111/21/1}

Atom   0C    basis set group =>   1
Atom   1N    basis set group =>   2
Atom   2H    basis set group =>   3
Atom   3H    basis set group =>   3
Atom   4H    basis set group =>   3
Atom   5H    basis set group =>   3
Atom   6H    basis set group =>   3
Atom   7H    basis set group =>   3
Atom   8Pb   basis set group =>   4
Atom   9Cl   basis set group =>   5
Atom  10Cl   basis set group =>   5
Atom  11Cl   basis set group =>   5
-------------------------------
AUXILIARY BASIS SET INFORMATION
-------------------------------
There are 5 groups of distinct atoms

 Group   1 Type C   : 12s5p4d2f1g contracted to 6s4p3d1f1g pattern {711111/2111/211/2/1}
 Group   2 Type N   : 12s5p4d2f1g contracted to 6s4p3d1f1g pattern {711111/2111/211/2/1}
 Group   3 Type H   : 5s2p1d contracted to 3s1p1d pattern {311/2/1}
 Group   4 Type Pb  : 31s12p8d6f3g contracted to 31s12p8d6f3g pattern {1111111111111111111111111111111/111111111111/11111111/111111/111}
 Group   5 Type Cl  : 14s5p5d2f1g contracted to 8s4p3d1f1g pattern {71111111/2111/311/2/1}

Atom   0C    basis set group =>   1
Atom   1N    basis set group =>   2
Atom   2H    basis set group =>   3
Atom   3H    basis set group =>   3
Atom   4H    basis set group =>   3
Atom   5H    basis set group =>   3
Atom   6H    basis set group =>   3
Atom   7H    basis set group =>   3
Atom   8Pb   basis set group =>   4
Atom   9Cl   basis set group =>   5
Atom  10Cl   basis set group =>   5
Atom  11Cl   basis set group =>   5

-------------------------
ECP PARAMETER INFORMATION
-------------------------

 Group 1, Type Pb ECP SD(60,MDF) (replacing 60 core electrons, lmax=5)

Atom   8Pb   ECP group =>   1


------------------------------------------------------------------------------
                           ORCA GTO INTEGRAL CALCULATION
                           -- RI-GTO INTEGRALS CHOSEN --
------------------------------------------------------------------------------

                         BASIS SET STATISTICS AND STARTUP INFO

Gaussian basis set:
 # of primitive gaussian shells          ...  186
 # of primitive gaussian functions       ...  420
 # of contracted shells                  ...  101
 # of contracted basis functions         ...  259
 Highest angular momentum                ...    3
 Maximum contraction depth               ...    7
Auxiliary gaussian basis set:
 # of primitive gaussian shells          ...  237
 # of primitive gaussian functions       ...  643
 # of contracted shells                  ...  171
 # of contracted aux-basis functions     ...  493
 Highest angular momentum                ...    4
 Maximum contraction depth               ...    7
Ratio of auxiliary to basis functions    ...  1.90
Integral package used                  ... LIBINT
 One Electron integrals                  
   ECP integrals                         ... done
 Ordering auxiliary basis shells         ... done
 Integral threshhold             Thresh  ...  2.500e-11
 Primitive cut-off               TCut    ...  2.500e-12
 Pre-screening matrix                    ... done
 Shell pair data                         ... 
 Ordering of the shell pairs             ... done (   0.001 sec) 4311 of 5151 pairs
 Determination of significant pairs      ... done (   0.000 sec)
 Creation of shell pair data             ... done (   0.002 sec)
 Storage of shell pair data              ... done (   0.001 sec)
 Shell pair data done in (   0.003 sec)
 Computing two index integrals           ... done
 Cholesky decomposition of the V-matrix  ... done


Timings:
 Total evaluation time                   ...   0.567 sec (  0.009 min)
 One electron matrix time                ...   0.304 sec (  0.005 min) = 53.6%
 Schwartz matrix evaluation time         ...   0.215 sec (  0.004 min) = 38.0%
 Two index repulsion integral time       ...   0.008 sec (  0.000 min) =  1.5%
 Cholesky decomposition of V             ...   0.009 sec (  0.000 min) =  1.6%
 Three index repulsion integral time     ...   0.000 sec (  0.000 min) =  0.0%

-------------------------------------------------------------------------------
                                 ORCA SCF
-------------------------------------------------------------------------------

------------
SCF SETTINGS
------------
Hamiltonian:
 Density Functional     Method          .... DFT(GTOs)
 Exchange Functional    Exchange        .... B88
   X-Alpha parameter    XAlpha          ....  0.666667
   Becke's b parameter  XBeta           ....  0.004200
 Correlation Functional Correlation     .... LYP
 LDA part of GGA corr.  LDAOpt          .... VWN-3
 Gradients option       PostSCFGGA      .... off
 Hybrid DFT is turned on
   Fraction HF Exchange ScalHFX         ....  0.530000
   Scaling of DF-GGA-X  ScalDFX         ....  0.470000
   Scaling of DF-GGA-C  ScalDFC         ....  0.730000
   Scaling of DF-LDA-C  ScalLDAC        ....  0.730000
   Perturbative correction              ....  0.270000
 RI-approximation to the Coulomb term is turned on
   Number of auxiliary basis functions  .... 493
   RIJ-COSX (HFX calculated with COS-X)).... on


General Settings:
 Integral files         IntName         .... PbMACl3_mp2_md_5.orca
 Hartree-Fock type      HFTyp           .... RHF
 Total Charge           Charge          ....    0
 Multiplicity           Mult            ....    1
 Number of Electrons    NEL             ....   92
 Basis Dimension        Dim             ....  259
 Nuclear Repulsion      ENuc            ....    593.8561560039 Eh

Convergence Acceleration:
 DIIS                   CNVDIIS         .... on
   Start iteration      DIISMaxIt       ....     0
   Startup error        DIISStart       ....  0.200000
   # of expansion vecs  DIISMaxEq       ....     5
   Bias factor          DIISBfac        ....   1.050
   Max. coefficient     DIISMaxC        ....  10.000
 Newton-Raphson         CNVNR           .... off
 SOSCF                  CNVSOSCF        .... on
   Start iteration      SOSCFMaxIt      ....   150
   Startup grad/error   SOSCFStart      ....  0.001000
 Level Shifting         CNVShift        .... on
   Level shift para.    LevelShift      ....    0.2500
   Turn off err/grad.   ShiftErr        ....    0.0000
 Zerner damping         CNVZerner       .... off
 Static damping         CNVDamp         .... on
   Fraction old density DampFac         ....    0.8500
   Max. Damping (<1)    DampMax         ....    0.9800
   Min. Damping (>=0)   DampMin         ....    0.0000
   Turn off err/grad.   DampErr         ....    0.0300
 Fernandez-Rico         CNVRico         .... off

SCF Procedure:
 Maximum # iterations   MaxIter         ....   125
 SCF integral mode      SCFMode         .... Direct
   Integral package                     .... LIBINT
 Reset frequeny         DirectResetFreq ....    20
 Integral Threshold     Thresh          ....  2.500e-11 Eh
 Primitive CutOff       TCut            ....  2.500e-12 Eh

Convergence Tolerance:
 Convergence Check Mode ConvCheckMode   .... Total+1el-Energy
 Energy Change          TolE            ....  1.000e-08 Eh
 1-El. energy change                    ....  1.000e-05 Eh
 Orbital Gradient       TolG            ....  1.000e-05
 Orbital Rotation angle TolX            ....  1.000e-05
 DIIS Error             TolErr          ....  5.000e-07


Diagonalization of the overlap matrix:
Smallest eigenvalue                        ... 1.031e-03
Time for diagonalization                   ...    0.016 sec
Threshold for overlap eigenvalues          ... 1.000e-08
Number of eigenvalues below threshold      ... 0
Time for construction of square roots      ...    0.006 sec
Total time needed                          ...    0.023 sec

---------------------
INITIAL GUESS: MOREAD
---------------------
Guess MOs are being read from file: previous.gbw
Input geometry compatible with but different from current geometry
Input basis set matches current basis set (good)
MOs were renormalized
MOs were reorthogonalized (Schmidt)
                      ------------------
                      INITIAL GUESS DONE (   0.1 sec)
                      ------------------
-------------------
DFT GRID GENERATION
-------------------

General Integration Accuracy     IntAcc      ...  5.010
Radial Grid Type                 RadialGrid  ... Gauss-Chebyshev
Angular Grid (max. acc.)         AngularGrid ... Lebedev-434
Angular grid pruning method      GridPruning ... 3 (G Style)
Weight generation scheme         WeightScheme... Becke
Basis function cutoff            BFCut       ...    1.0000e-11
Integration weight cutoff        WCut        ...    1.0000e-14
Grids for H and He will be reduced by one unit

# of grid points (after initial pruning)     ... 115882 (   0.0 sec)
# of grid points (after weights+screening)   ... 108597 (   0.2 sec)
nearest neighbour list constructed           ...    0.0 sec
Grid point re-assignment to atoms done       ...    0.0 sec
Grid point division into batches done        ...    0.9 sec
Reduced shell lists constructed in    3.3 sec

Total number of grid points                  ...   108597
Total number of batches                      ...     1703
Average number of points per batch           ...       63
Average number of grid points per atom       ...     9050
Average number of shells per batch           ...    53.59 (53.06%)
Average number of basis functions per batch  ...   141.30 (54.55%)
Average number of large shells per batch     ...    40.50 (75.57%)
Average number of large basis fcns per batch ...   104.90 (74.24%)
Maximum spatial batch extension              ...  30.27, 30.98, 36.67 au
Average spatial batch extension              ...   2.37,  2.34,  2.54 au

Time for grid setup =    3.583 sec

--------------------
COSX GRID GENERATION
--------------------

General Integration Accuracy     IntAcc      ...  3.340
Radial Grid Type                 RadialGrid  ... Gauss-Chebyshev
Angular Grid (max. acc.)         AngularGrid ... Lebedev-50
Angular grid pruning method      GridPruning ... 3 (G Style)
Weight generation scheme         WeightScheme... Becke
Basis function cutoff            BFCut       ...    1.0000e-11
Integration weight cutoff        WCut        ...    1.0000e-14
Grids for H and He will be reduced by one unit

# of grid points (after initial pruning)     ...   6578 (   0.0 sec)
# of grid points (after weights+screening)   ...   6277 (   0.0 sec)
nearest neighbour list constructed           ...    0.0 sec
Grid point re-assignment to atoms done       ...    0.0 sec
Grid point division into batches done        ...    0.0 sec
Reduced shell lists constructed in    0.2 sec

Total number of grid points                  ...     6277
Total number of batches                      ...      105
Average number of points per batch           ...       59
Average number of grid points per atom       ...      523
Average number of shells per batch           ...    64.40 (63.76%)
Average number of basis functions per batch  ...   172.08 (66.44%)
Average number of large shells per batch     ...    50.06 (77.73%)
Average number of large basis fcns per batch ...   131.81 (76.60%)
Maximum spatial batch extension              ...  24.31, 26.81, 44.74 au
Average spatial batch extension              ...   5.52,  5.79,  7.05 au

Overlap Fitting                  UseSFitting ... on
Constructing numerical overlap ... done (      0.1 sec)
Inverting numerical overlap    ... done (      0.0 sec)
Obtaining analytic overlap     ... done (      0.0 sec)
Final contraction and storage  ... done (      0.0 sec)


General Integration Accuracy     IntAcc      ...  3.670
Radial Grid Type                 RadialGrid  ... Gauss-Chebyshev
Angular Grid (max. acc.)         AngularGrid ... Lebedev-50
Angular grid pruning method      GridPruning ... 3 (G Style)
Weight generation scheme         WeightScheme... Becke
Basis function cutoff            BFCut       ...    1.0000e-11
Integration weight cutoff        WCut        ...    1.0000e-14
Grids for H and He will be reduced by one unit

# of grid points (after initial pruning)     ...   8124 (   0.0 sec)
# of grid points (after weights+screening)   ...   7727 (   0.0 sec)
nearest neighbour list constructed           ...    0.0 sec
Grid point re-assignment to atoms done       ...    0.0 sec
Grid point division into batches done        ...    0.0 sec
Reduced shell lists constructed in    0.2 sec

Total number of grid points                  ...     7727
Total number of batches                      ...      127
Average number of points per batch           ...       60
Average number of grid points per atom       ...      644
Average number of shells per batch           ...    64.00 (63.37%)
Average number of basis functions per batch  ...   170.84 (65.96%)
Average number of large shells per batch     ...    49.58 (77.47%)
Average number of large basis fcns per batch ...   130.02 (76.10%)
Maximum spatial batch extension              ...  25.37, 27.69, 46.50 au
Average spatial batch extension              ...   5.28,  5.54,  6.67 au

Overlap Fitting                  UseSFitting ... on
Constructing numerical overlap ... done (      0.1 sec)
Inverting numerical overlap    ... done (      0.0 sec)
Obtaining analytic overlap     ... done (      0.0 sec)
Final contraction and storage  ... done (      0.0 sec)


General Integration Accuracy     IntAcc      ...  4.010
Radial Grid Type                 RadialGrid  ... Gauss-Chebyshev
Angular Grid (max. acc.)         AngularGrid ... Lebedev-110
Angular grid pruning method      GridPruning ... 3 (G Style)
Weight generation scheme         WeightScheme... Becke
Basis function cutoff            BFCut       ...    1.0000e-11
Integration weight cutoff        WCut        ...    1.0000e-14
Grids for H and He will be reduced by one unit

# of grid points (after initial pruning)     ...  15170 (   0.0 sec)
# of grid points (after weights+screening)   ...  14447 (   0.0 sec)
nearest neighbour list constructed           ...    0.0 sec
Grid point re-assignment to atoms done       ...    0.0 sec
Grid point division into batches done        ...    0.0 sec
Reduced shell lists constructed in    0.4 sec

Total number of grid points                  ...    14447
Total number of batches                      ...      231
Average number of points per batch           ...       62
Average number of grid points per atom       ...     1204
Average number of shells per batch           ...    60.90 (60.30%)
Average number of basis functions per batch  ...   162.64 (62.80%)
Average number of large shells per batch     ...    46.92 (77.05%)
Average number of large basis fcns per batch ...   123.54 (75.96%)
Maximum spatial batch extension              ...  29.77, 29.55, 39.26 au
Average spatial batch extension              ...   4.79,  4.73,  5.54 au

Overlap Fitting                  UseSFitting ... on
Constructing numerical overlap ... done (      0.2 sec)
Inverting numerical overlap    ... done (      0.0 sec)
Obtaining analytic overlap     ... done (      0.0 sec)
Final contraction and storage  ... done (      0.0 sec)

Time for X-Grid setup             =    1.382 sec
--------------
SCF ITERATIONS
--------------
ITER       Energy         Delta-E        Max-DP      RMS-DP      [F,P]     Damp
               ***  Starting incremental Fock matrix formation  ***
  0  -1664.1804404135   0.000000000000 0.07324088  0.00190058  0.6577104 0.8500
  1  -1664.8401058539  -0.659665440351 0.07508754  0.00176456  0.5595597 0.8500
                               ***Turning on DIIS***
  2  -1665.4122262912  -0.572120437267 0.06402916  0.00153241  0.4758214 0.8500
  3  -1665.9022148316  -0.489988540465 0.05317951  0.00131021  0.4045940 0.8500
  4  -1666.3262532630  -0.424038431329 0.04479750  0.00113600  0.3439809 0.8500
  5  -1666.6918690809  -0.365615817962 0.03793417  0.00098954  0.2924129 0.8500
  6  -1667.0092071874  -0.317338106479 0.03255991  0.00085762  0.2485622 0.8500
  7  -1667.2851875012  -0.275980313839 0.02804191  0.00073942  0.2112841 0.8500
  8  -1667.5249158819  -0.239728380673 0.02422195  0.00063406  0.1795977 0.8500
  9  -1667.7318565162  -0.206940634259 0.02068442  0.00054156  0.1526634 0.8500
 10  -1667.9098956999  -0.178039183729 0.01753149  0.00046189  0.1297683 0.8500
 11  -1668.0628321902  -0.152936490323 0.01485991  0.00039389  0.1103067 0.8500
 12  -1668.1940533942  -0.131221203989 0.01262918  0.00033593  0.0937634 0.8500
 13  -1668.3065056831  -0.112452288926 0.01075396  0.00028642  0.0797008 0.8500
 14  -1668.4027487146  -0.096243031433 0.00915391  0.00024409  0.0677469 0.8500
 15  -1668.4850263114  -0.082277596824 0.00778324  0.00020794  0.0575857 0.8500
 16  -1668.5553029224  -0.070276611047 0.00661519  0.00017713  0.0489484 0.8500
 17  -1668.6152866221  -0.059983699640 0.00562447  0.00015089  0.0416065 0.8500
 18  -1668.6664542677  -0.051167645596 0.00478454  0.00012854  0.0353658 0.8500
 19  -1668.7100787362  -0.043624468526 0.00407071  0.00010950  0.0300611 0.8500
               *** Restarting incremental Fock matrix formation ***
                                   *** Resetting DIIS ***
 20  -1668.7500630515  -0.039984315333 0.02203505  0.00059455  0.0255531 0.0000
 21  -1668.9622115350  -0.212148483460 0.00441623  0.00007536  0.0092612 0.0000
 22  -1668.9623808153  -0.000169280280 0.00174967  0.00002695  0.0041567 0.0000
                      *** Initiating the SOSCF procedure ***
                           *** Shutting down DIIS ***
                      *** Re-Reading the Fockian *** 
                      *** Removing any level shift *** 
ITER      Energy       Delta-E        Grad      Rot      Max-DP    RMS-DP
 23  -1668.96242109  -0.0000402794  0.000295  0.000295  0.000587  0.000010
               *** Restarting incremental Fock matrix formation ***
 24  -1668.95968061   0.0027404855  0.000358  0.000536  0.001755  0.000028
 25  -1668.95967980   0.0000008083  0.000050  0.000236  0.000332  0.000007
 26  -1668.95967919   0.0000006063  0.000054  0.000032  0.000184  0.000003
 27  -1668.95967957  -0.0000003777  0.000009  0.000012  0.000031  0.000001
 28  -1668.95967964  -0.0000000631  0.000003  0.000008  0.000013  0.000000
                  ***Gradient check signals convergence***
              ***Rediagonalizing the Fockian in SOSCF/NRSCF***

               *****************************************************
               *                     SUCCESS                       *
               *           SCF CONVERGED AFTER  29 CYCLES          *
               *****************************************************

Old exchange energy                            =    -59.239198444 Eh
New exchange energy                            =    -59.242058211 Eh
Exchange energy change after final integration =     -0.002859767 Eh
Total energy after final integration           =  -1668.962539406 Eh
Final COS-X integration done in                =    20.981 sec

----------------
TOTAL SCF ENERGY
----------------

Total Energy       :        -1668.96253941 Eh          -45414.77954 eV

Components:
Nuclear Repulsion  :          593.85615600 Eh           16159.64755 eV
Electronic Energy  :        -2262.81869541 Eh          -61574.42709 eV

One Electron Energy:        -3558.64187367 Eh          -96835.56841 eV
Two Electron Energy:         1295.82317826 Eh           35261.14132 eV

Virial components:
Potential Energy   :        -3207.09825104 Eh          -87269.58011 eV
Kinetic Energy     :         1538.13571163 Eh           41854.80057 eV
Virial Ratio       :            2.08505545


DFT components:
N(Alpha)           :       45.999998413986 electrons
N(Beta)            :       45.999998413986 electrons
N(Total)           :       91.999996827971 electrons
E(X)               :      -52.609867109012 Eh       
E(C)               :       -2.611192014691 Eh       
E(XC)              :      -55.221059123702 Eh       

---------------
SCF CONVERGENCE
---------------

  Last Energy change         ...   -3.4781e-09  Tolerance :   1.0000e-08
  Last MAX-Density change    ...    1.3843e-13  Tolerance :   1.0000e-07
  Last RMS-Density change    ...    6.7737e-16  Tolerance :   5.0000e-09
  Last Orbital Gradient      ...    1.4620e-06  Tolerance :   1.0000e-05
  Last Orbital Rotation      ...    1.9907e-06  Tolerance :   1.0000e-05

             **** THE GBW FILE WAS UPDATED (PbMACl3_mp2_md_5.orca.gbw) ****
             **** DENSITY FILE WAS UPDATED (PbMACl3_mp2_md_5.orca.scfp.tmp) ****
             **** ENERGY FILE WAS UPDATED (PbMACl3_mp2_md_5.orca.en.tmp) ****
----------------
ORBITAL ENERGIES
----------------

  NO   OCC          E(Eh)            E(eV) 
   0   2.0000    -102.860013     -2798.9632 
   1   2.0000    -102.845265     -2798.5619 
   2   2.0000    -102.829219     -2798.1253 
   3   2.0000     -14.991829      -407.9484 
   4   2.0000     -10.732387      -292.0431 
   5   2.0000      -9.869689      -268.5679 
   6   2.0000      -9.854103      -268.1438 
   7   2.0000      -9.837188      -267.6835 
   8   2.0000      -7.506260      -204.2557 
   9   2.0000      -7.504973      -204.2207 
  10   2.0000      -7.504733      -204.2142 
  11   2.0000      -7.490755      -203.8338 
  12   2.0000      -7.489417      -203.7974 
  13   2.0000      -7.489302      -203.7943 
  14   2.0000      -7.474299      -203.3860 
  15   2.0000      -7.472293      -203.3314 
  16   2.0000      -7.472135      -203.3271 
  17   2.0000      -5.777675      -157.2185 
  18   2.0000      -3.550213       -96.6062 
  19   2.0000      -3.548242       -96.5526 
  20   2.0000      -3.547175       -96.5235 
  21   2.0000      -1.182693       -32.1827 
  22   2.0000      -0.961087       -26.1525 
  23   2.0000      -0.953575       -25.9481 
  24   2.0000      -0.949320       -25.8323 
  25   2.0000      -0.940041       -25.5798 
  26   2.0000      -0.938509       -25.5381 
  27   2.0000      -0.886242       -24.1159 
  28   2.0000      -0.878745       -23.9119 
  29   2.0000      -0.863853       -23.5066 
  30   2.0000      -0.843974       -22.9657 
  31   2.0000      -0.743120       -20.2213 
  32   2.0000      -0.684489       -18.6259 
  33   2.0000      -0.603609       -16.4250 
  34   2.0000      -0.553363       -15.0578 
  35   2.0000      -0.540132       -14.6978 
  36   2.0000      -0.535521       -14.5723 
  37   2.0000      -0.397345       -10.8123 
  38   2.0000      -0.389365       -10.5952 
  39   2.0000      -0.371908       -10.1201 
  40   2.0000      -0.362133        -9.8541 
  41   2.0000      -0.351871        -9.5749 
  42   2.0000      -0.350408        -9.5351 
  43   2.0000      -0.328559        -8.9405 
  44   2.0000      -0.324935        -8.8419 
  45   2.0000      -0.242335        -6.5943 
  46   0.0000      -0.015805        -0.4301 
  47   0.0000       0.000723         0.0197 
  48   0.0000       0.051541         1.4025 
  49   0.0000       0.058513         1.5922 
  50   0.0000       0.069300         1.8858 
  51   0.0000       0.091432         2.4880 
  52   0.0000       0.101412         2.7595 
  53   0.0000       0.108251         2.9457 
  54   0.0000       0.132957         3.6179 
  55   0.0000       0.140122         3.8129 
  56   0.0000       0.144488         3.9317 
  57   0.0000       0.159668         4.3448 
  58   0.0000       0.168679         4.5900 
  59   0.0000       0.211241         5.7482 
  60   0.0000       0.214336         5.8324 
  61   0.0000       0.239007         6.5037 
  62   0.0000       0.247228         6.7274 
  63   0.0000       0.265460         7.2235 
  64   0.0000       0.270470         7.3599 
  65   0.0000       0.296014         8.0550 
  66   0.0000       0.303533         8.2596 
  67   0.0000       0.319599         8.6967 
  68   0.0000       0.336677         9.1614 
  69   0.0000       0.352231         9.5847 
  70   0.0000       0.393111        10.6971 
  71   0.0000       0.399158        10.8616 
  72   0.0000       0.420376        11.4390 
  73   0.0000       0.435316        11.8455 
  74   0.0000       0.441646        12.0178 
  75   0.0000       0.443319        12.0633 
  76   0.0000       0.456108        12.4113 
  77   0.0000       0.463734        12.6188 
  78   0.0000       0.466529        12.6949 
  79   0.0000       0.474272        12.9056 
  80   0.0000       0.485395        13.2083 
  81   0.0000       0.489122        13.3097 
  82   0.0000       0.497522        13.5383 
  83   0.0000       0.513457        13.9719 
  84   0.0000       0.519349        14.1322 
  85   0.0000       0.521665        14.1952 
  86   0.0000       0.529724        14.4145 
  87   0.0000       0.536327        14.5942 
  88   0.0000       0.549646        14.9566 
  89   0.0000       0.561448        15.2778 
  90   0.0000       0.571576        15.5534 
  91   0.0000       0.594499        16.1771 
  92   0.0000       0.599592        16.3157 
  93   0.0000       0.609652        16.5895 
  94   0.0000       0.619922        16.8689 
  95   0.0000       0.627128        17.0650 
  96   0.0000       0.643719        17.5165 
  97   0.0000       0.650807        17.7094 
  98   0.0000       0.657424        17.8894 
  99   0.0000       0.706844        19.2342 
 100   0.0000       0.746329        20.3086 
 101   0.0000       0.754236        20.5238 
 102   0.0000       0.763450        20.7745 
 103   0.0000       0.780589        21.2409 
 104   0.0000       0.828075        22.5331 
 105   0.0000       0.832346        22.6493 
 106   0.0000       0.855928        23.2910 
 107   0.0000       0.862740        23.4764 
 108   0.0000       0.895805        24.3761 
 109   0.0000       0.906859        24.6769 
 110   0.0000       0.922712        25.1083 
 111   0.0000       0.926154        25.2019 
 112   0.0000       0.946178        25.7468 
 113   0.0000       0.952545        25.9201 
 114   0.0000       0.986639        26.8478 
 115   0.0000       0.992554        27.0088 
 116   0.0000       1.012446        27.5501 
 117   0.0000       1.055674        28.7264 
 118   0.0000       1.071534        29.1579 
 119   0.0000       1.081647        29.4331 
 120   0.0000       1.108171        30.1549 
 121   0.0000       1.117094        30.3977 
 122   0.0000       1.141038        31.0492 
 123   0.0000       1.165404        31.7123 
 124   0.0000       1.214556        33.0498 
 125   0.0000       1.274462        34.6799 
 126   0.0000       1.297100        35.2959 
 127   0.0000       1.336182        36.3594 
 128   0.0000       1.351580        36.7783 
 129   0.0000       1.375021        37.4162 
 130   0.0000       1.419781        38.6342 
 131   0.0000       1.519264        41.3413 
 132   0.0000       1.535917        41.7944 
 133   0.0000       1.583225        43.0817 
 134   0.0000       1.608475        43.7688 
 135   0.0000       1.682691        45.7883 
 136   0.0000       1.697798        46.1994 
 137   0.0000       1.798260        48.9332 
 138   0.0000       1.802322        49.0437 
 139   0.0000       1.846482        50.2453 
 140   0.0000       1.877163        51.0802 
 141   0.0000       1.884115        51.2694 
 142   0.0000       1.925566        52.3973 
 143   0.0000       1.938110        52.7387 
 144   0.0000       1.944925        52.9241 
 145   0.0000       1.953796        53.1655 
 146   0.0000       1.956136        53.2292 
 147   0.0000       1.981913        53.9306 
 148   0.0000       1.994259        54.2665 
 149   0.0000       1.998595        54.3845 
 150   0.0000       2.002404        54.4882 
 151   0.0000       2.012834        54.7720 
 152   0.0000       2.034510        55.3618 
 153   0.0000       2.045489        55.6606 
 154   0.0000       2.062204        56.1154 
 155   0.0000       2.077728        56.5378 
 156   0.0000       2.094941        57.0062 
 157   0.0000       2.104608        57.2693 
 158   0.0000       2.119404        57.6719 
 159   0.0000       2.137255        58.1577 
 160   0.0000       2.148456        58.4625 
 161   0.0000       2.154692        58.6322 
 162   0.0000       2.160280        58.7842 
 163   0.0000       2.167319        58.9757 
 164   0.0000       2.189740        59.5859 
 165   0.0000       2.197638        59.8008 
 166   0.0000       2.206477        60.0413 
 167   0.0000       2.231092        60.7111 
 168   0.0000       2.245791        61.1111 
 169   0.0000       2.252139        61.2838 
 170   0.0000       2.257033        61.4170 
 171   0.0000       2.263608        61.5959 
 172   0.0000       2.271420        61.8085 
 173   0.0000       2.276820        61.9554 
 174   0.0000       2.277357        61.9700 
 175   0.0000       2.278729        62.0074 
 176   0.0000       2.297323        62.5133 
 177   0.0000       2.314987        62.9940 
 178   0.0000       2.323334        63.2211 
 179   0.0000       2.326451        63.3059 
 180   0.0000       2.334223        63.5174 
 181   0.0000       2.355556        64.0979 
 182   0.0000       2.371467        64.5309 
 183   0.0000       2.372370        64.5555 
 184   0.0000       2.398467        65.2656 
 185   0.0000       2.407417        65.5091 
 186   0.0000       2.417384        65.7804 
 187   0.0000       2.424959        65.9865 
 188   0.0000       2.437708        66.3334 
 189   0.0000       2.441890        66.4472 
 190   0.0000       2.454462        66.7893 
 191   0.0000       2.470553        67.2272 
 192   0.0000       2.487597        67.6909 
 193   0.0000       2.492818        67.8330 
 194   0.0000       2.516140        68.4676 
 195   0.0000       2.532461        68.9118 
 196   0.0000       2.555297        69.5332 
 197   0.0000       2.571829        69.9830 
 198   0.0000       2.588218        70.4290 
 199   0.0000       2.618379        71.2497 
 200   0.0000       2.635290        71.7099 
 201   0.0000       2.668925        72.6251 
 202   0.0000       2.679256        72.9063 
 203   0.0000       2.702318        73.5338 
 204   0.0000       2.726945        74.2040 
 205   0.0000       2.748736        74.7969 
 206   0.0000       2.811696        76.5101 
 207   0.0000       2.823132        76.8213 
 208   0.0000       2.858117        77.7733 
 209   0.0000       2.882655        78.4410 
 210   0.0000       2.902969        78.9938 
 211   0.0000       3.037320        82.6497 
 212   0.0000       3.084089        83.9223 
 213   0.0000       3.165627        86.1411 
 214   0.0000       3.228036        87.8393 
 215   0.0000       3.276622        89.1614 
 216   0.0000       3.313502        90.1650 
 217   0.0000       3.448099        93.8276 
 218   0.0000       3.526303        95.9556 
 219   0.0000       3.542575        96.3984 
 220   0.0000       3.571051        97.1732 
 221   0.0000       3.616407        98.4074 
 222   0.0000       3.685852       100.2971 
 223   0.0000       3.800280       103.4109 
 224   0.0000       3.957726       107.6952 
 225   0.0000       4.100237       111.5731 
 226   0.0000       4.173856       113.5764 
 227   0.0000       4.444360       120.9372 
 228   0.0000       4.550769       123.8327 
 229   0.0000       4.744458       129.1033 
 230   0.0000       4.807129       130.8086 
 231   0.0000       4.860289       132.2552 
 232   0.0000       4.875323       132.6643 
 233   0.0000       4.998849       136.0256 
 234   0.0000       5.066796       137.8745 
 235   0.0000       5.137312       139.7934 
 236   0.0000       5.241857       142.6382 
 237   0.0000       5.431389       147.7956 
 238   0.0000       5.642904       153.5512 
 239   0.0000       6.134738       166.9347 
 240   0.0000      11.056348       300.8585 
 241   0.0000      11.065941       301.1196 
 242   0.0000      11.085812       301.6603 
 243   0.0000      11.090174       301.7790 
 244   0.0000      11.104299       302.1633 
 245   0.0000      11.148620       303.3694 
 246   0.0000      11.201289       304.8026 
 247   0.0000      11.227015       305.5026 
 248   0.0000      11.258809       306.3678 
 249   0.0000      22.497982       612.2012 
 250   0.0000      25.268678       687.5957 
 251   0.0000      25.322844       689.0696 
 252   0.0000      25.428264       691.9382 
 253   0.0000      32.346314       880.1879 
 254   0.0000      35.659253       970.3376 
 255   0.0000      35.778911       973.5937 
 256   0.0000      35.865616       975.9530 
 257   0.0000      35.936762       977.8890 
 258   0.0000     123.670353      3365.2414 

                    ********************************
                    * MULLIKEN POPULATION ANALYSIS *
                    ********************************

-----------------------
MULLIKEN ATOMIC CHARGES
-----------------------
   0 C :   -0.237749
   1 N :   -0.226794
   2 H :    0.276615
   3 H :    0.267723
   4 H :    0.238405
   5 H :    0.173701
   6 H :    0.157316
   7 H :    0.182653
   8 Pb:    0.796704
   9 Cl:   -0.577018
  10 Cl:   -0.545720
  11 Cl:   -0.505837
Sum of atomic charges:   -0.0000000

--------------------------------
MULLIKEN REDUCED ORBITAL CHARGES
--------------------------------
  0 C s       :     3.283571  s :     3.283571
      pz      :     0.773974  p :     2.883421
      px      :     1.085925
      py      :     1.023522
      dz2     :     0.018996  d :     0.065183
      dxz     :     0.006539
      dyz     :     0.017638
      dx2y2   :     0.009534
      dxy     :     0.012477
      f0      :     0.000968  f :     0.005574
      f+1     :     0.000672
      f-1     :     0.001675
      f+2     :     0.000599
      f-2     :     0.000577
      f+3     :     0.000536
      f-3     :     0.000548
  1 N s       :     3.399813  s :     3.399813
      pz      :     1.221885  p :     3.782511
      px      :     1.301025
      py      :     1.259601
      dz2     :     0.011972  d :     0.042286
      dxz     :     0.008106
      dyz     :     0.011527
      dx2y2   :     0.006199
      dxy     :     0.004482
      f0      :     0.000296  f :     0.002184
      f+1     :     0.000162
      f-1     :     0.000738
      f+2     :     0.000242
      f-2     :     0.000108
      f+3     :     0.000652
      f-3     :    -0.000015
  2 H s       :     0.691398  s :     0.691398
      pz      :     0.015508  p :     0.031988
      px      :     0.007254
      py      :     0.009226
  3 H s       :     0.688937  s :     0.688937
      pz      :     0.008187  p :     0.043340
      px      :     0.028669
      py      :     0.006484
  4 H s       :     0.714156  s :     0.714156
      pz      :     0.008117  p :     0.047439
      px      :     0.011852
      py      :     0.027470
  5 H s       :     0.804447  s :     0.804447
      pz      :     0.002944  p :     0.021852
      px      :     0.009053
      py      :     0.009855
  6 H s       :     0.821286  s :     0.821286
      pz      :     0.002876  p :     0.021398
      px      :     0.013268
      py      :     0.005255
  7 H s       :     0.795728  s :     0.795728
      pz      :     0.008938  p :     0.021618
      px      :     0.004269
      py      :     0.008412
  8 Pbs       :     3.945112  s :     3.945112
      pz      :     2.371319  p :     7.014543
      px      :     2.321907
      py      :     2.321317
      dz2     :     2.032553  d :    10.164671
      dxz     :     2.029840
      dyz     :     2.024520
      dx2y2   :     2.045701
      dxy     :     2.032057
      f0      :     0.006272  f :     0.078971
      f+1     :     0.006006
      f-1     :     0.006712
      f+2     :     0.010686
      f-2     :     0.008363
      f+3     :     0.019694
      f-3     :     0.021237
  9 Cls       :     5.952191  s :     5.952191
      pz      :     3.923012  p :    11.604440
      px      :     3.780223
      py      :     3.901205
      dz2     :     0.003111  d :     0.019598
      dxz     :     0.002436
      dyz     :     0.001221
      dx2y2   :     0.008778
      dxy     :     0.004053
      f0      :     0.000084  f :     0.000788
      f+1     :     0.000173
      f-1     :     0.000045
      f+2     :     0.000064
      f-2     :     0.000025
      f+3     :     0.000182
      f-3     :     0.000215
 10 Cls       :     5.951389  s :     5.951389
      pz      :     3.903567  p :    11.568682
      px      :     3.903132
      py      :     3.761982
      dz2     :     0.003262  d :     0.024539
      dxz     :     0.002233
      dyz     :     0.005012
      dx2y2   :     0.009913
      dxy     :     0.004119
      f0      :     0.000130  f :     0.001109
      f+1     :     0.000031
      f-1     :     0.000190
      f+2     :     0.000206
      f-2     :     0.000047
      f+3     :     0.000208
      f-3     :     0.000298
 11 Cls       :     5.951294  s :     5.951294
      pz      :     3.905240  p :    11.531374
      px      :     3.800154
      py      :     3.825981
      dz2     :     0.002684  d :     0.021945
      dxz     :     0.004078
      dyz     :     0.003739
      dx2y2   :     0.003354
      dxy     :     0.008090
      f0      :     0.000132  f :     0.001224
      f+1     :     0.000109
      f-1     :     0.000096
      f+2     :     0.000069
      f-2     :     0.000308
      f+3     :     0.000239
      f-3     :     0.000271


                     *******************************
                     * LOEWDIN POPULATION ANALYSIS *
                     *******************************

----------------------
LOEWDIN ATOMIC CHARGES
----------------------
   0 C :   -0.253699
   1 N :    0.139588
   2 H :    0.213930
   3 H :    0.157264
   4 H :    0.092808
   5 H :    0.127649
   6 H :    0.120221
   7 H :    0.141200
   8 Pb:   -0.195643
   9 Cl:   -0.237319
  10 Cl:   -0.157542
  11 Cl:   -0.148457

-------------------------------
LOEWDIN REDUCED ORBITAL CHARGES
-------------------------------
  0 C s       :     2.888213  s :     2.888213
      pz      :     0.888822  p :     3.067034
      px      :     1.123275
      py      :     1.054938
      dz2     :     0.075243  d :     0.266900
      dxz     :     0.031803
      dyz     :     0.077790
      dx2y2   :     0.032440
      dxy     :     0.049624
      f0      :     0.005408  f :     0.031552
      f+1     :     0.006094
      f-1     :     0.007288
      f+2     :     0.005097
      f-2     :     0.003906
      f+3     :     0.001789
      f-3     :     0.001970
  1 N s       :     2.973917  s :     2.973917
      pz      :     1.208981  p :     3.725936
      px      :     1.262307
      py      :     1.254648
      dz2     :     0.042268  d :     0.151061
      dxz     :     0.024129
      dyz     :     0.037771
      dx2y2   :     0.028399
      dxy     :     0.018494
      f0      :     0.001379  f :     0.009498
      f+1     :     0.001659
      f-1     :     0.001835
      f+2     :     0.001260
      f-2     :     0.001158
      f+3     :     0.002015
      f-3     :     0.000192
  2 H s       :     0.694384  s :     0.694384
      pz      :     0.042250  p :     0.091686
      px      :     0.020454
      py      :     0.028981
  3 H s       :     0.715620  s :     0.715620
      pz      :     0.022234  p :     0.127116
      px      :     0.085048
      py      :     0.019834
  4 H s       :     0.753130  s :     0.753130
      pz      :     0.028706  p :     0.154062
      px      :     0.041985
      py      :     0.083370
  5 H s       :     0.809671  s :     0.809671
      pz      :     0.009159  p :     0.062680
      px      :     0.025957
      py      :     0.027564
  6 H s       :     0.817162  s :     0.817162
      pz      :     0.009388  p :     0.062617
      px      :     0.037544
      py      :     0.015685
  7 H s       :     0.797964  s :     0.797964
      pz      :     0.023280  p :     0.060836
      px      :     0.012923
      py      :     0.024633
  8 Pbs       :     3.677071  s :     3.677071
      pz      :     2.466745  p :     7.509692
      px      :     2.516891
      py      :     2.526057
      dz2     :     2.141313  d :    10.755929
      dxz     :     2.100155
      dyz     :     2.105546
      dx2y2   :     2.225636
      dxy     :     2.183279
      f0      :     0.019830  f :     0.252950
      f+1     :     0.019105
      f-1     :     0.020275
      f+2     :     0.028685
      f-2     :     0.026811
      f+3     :     0.061344
      f-3     :     0.076900
  9 Cls       :     5.743416  s :     5.743416
      pz      :     3.870779  p :    11.447611
      px      :     3.748270
      py      :     3.828562
      dz2     :     0.008565  d :     0.043956
      dxz     :     0.002649
      dyz     :     0.001197
      dx2y2   :     0.022623
      dxy     :     0.008922
      f0      :     0.000085  f :     0.002336
      f+1     :     0.000633
      f-1     :     0.000087
      f+2     :     0.000095
      f-2     :     0.000031
      f+3     :     0.000657
      f-3     :     0.000747
 10 Cls       :     5.711302  s :     5.711302
      pz      :     3.846141  p :    11.388658
      px      :     3.815912
      py      :     3.726605
      dz2     :     0.006363  d :     0.054409
      dxz     :     0.003305
      dyz     :     0.012166
      dx2y2   :     0.026700
      dxy     :     0.005875
      f0      :     0.000385  f :     0.003173
      f+1     :     0.000044
      f-1     :     0.000414
      f+2     :     0.000727
      f-2     :     0.000096
      f+3     :     0.000476
      f-3     :     0.001032
 11 Cls       :     5.720848  s :     5.720848
      pz      :     3.844929  p :    11.380169
      px      :     3.755836
      py      :     3.779403
      dz2     :     0.003340  d :     0.044523
      dxz     :     0.010054
      dyz     :     0.009009
      dx2y2   :     0.003033
      dxy     :     0.019085
      f0      :     0.000461  f :     0.002917
      f+1     :     0.000109
      f-1     :     0.000098
      f+2     :     0.000082
      f-2     :     0.001071
      f+3     :     0.000481
      f-3     :     0.000615


                      *****************************
                      * MAYER POPULATION ANALYSIS *
                      *****************************

  NA   - Mulliken gross atomic population
  ZA   - Total nuclear charge
  QA   - Mulliken gross atomic charge
  VA   - Mayer's total valence
  BVA  - Mayer's bonded valence
  FA   - Mayer's free valence

  ATOM       NA         ZA         QA         VA         BVA        FA
  0 C      6.2377     6.0000    -0.2377     3.7682     3.7682     0.0000
  1 N      7.2268     7.0000    -0.2268     3.4428     3.4428    -0.0000
  2 H      0.7234     1.0000     0.2766     0.9241     0.9241     0.0000
  3 H      0.7323     1.0000     0.2677     0.9834     0.9834    -0.0000
  4 H      0.7616     1.0000     0.2384     1.0302     1.0302    -0.0000
  5 H      0.8263     1.0000     0.1737     0.9737     0.9737     0.0000
  6 H      0.8427     1.0000     0.1573     0.9591     0.9591    -0.0000
  7 H      0.8173     1.0000     0.1827     0.9740     0.9740     0.0000
  8 Pb    21.2033    22.0000     0.7967     1.9572     1.9572     0.0000
  9 Cl    17.5770    17.0000    -0.5770     0.7109     0.7109    -0.0000
 10 Cl    17.5457    17.0000    -0.5457     0.7583     0.7583    -0.0000
 11 Cl    17.5058    17.0000    -0.5058     0.8366     0.8366     0.0000

  Mayer bond orders larger than 0.1
B(  0-C ,  1-N ) :   0.8752 B(  0-C ,  5-H ) :   0.9578 B(  0-C ,  6-H ) :   0.9572 
B(  0-C ,  7-H ) :   0.9567 B(  1-N ,  2-H ) :   0.8947 B(  1-N ,  3-H ) :   0.8427 
B(  1-N ,  4-H ) :   0.8776 B(  3-H , 10-Cl) :   0.1422 B(  4-H ,  9-Cl) :   0.1430 
B(  8-Pb,  9-Cl) :   0.5588 B(  8-Pb, 10-Cl) :   0.5743 B(  8-Pb, 11-Cl) :   0.8115 


-------
TIMINGS
-------

Total SCF time: 0 days 0 hours 6 min 36 sec 

Total time                  ....     396.750 sec
Sum of individual times     ....     374.504 sec  ( 94.4%)

Fock matrix formation       ....     368.232 sec  ( 92.8%)
  Coulomb formation         ....     283.535 sec  ( 77.0% of F)
  Split-RI-J                ....      25.591 sec  (  6.9% of F)
  Chain of spheres X        ....     278.830 sec  ( 75.7% of F)
  COS-X 1 center corr.      ....       0.000 sec  (  0.0% of F)
  XC integration            ....      84.740 sec  ( 23.0% of F)
    Basis function eval.    ....      38.110 sec  ( 45.0% of XC)
    Density eval.           ....      18.682 sec  ( 22.0% of XC)
    XC-Functional eval.     ....       4.586 sec  (  5.4% of XC)
    XC-Potential eval.      ....      21.707 sec  ( 25.6% of XC)
Diagonalization             ....       0.758 sec  (  0.2%)
Density matrix formation    ....       0.050 sec  (  0.0%)
Population analysis         ....       0.074 sec  (  0.0%)
Initial guess               ....       0.115 sec  (  0.0%)
Orbital Transformation      ....       0.000 sec  (  0.0%)
Orbital Orthonormalization  ....       0.112 sec  (  0.0%)
DIIS solution               ....       0.205 sec  (  0.1%)
SOSCF solution              ....       0.105 sec  (  0.0%)
Grid generation             ....       4.966 sec  (  1.3%)

------------------------------------------------------------------------------
                              ORCA MP2 CALCULATION
------------------------------------------------------------------------------


----------------------
RI-MP2 ENERGY+GRADIENT
----------------------
Dimension of the basis                    ...  259
Memory devoted to MP2                     ... 1000 MB   
Data format for buffers                   ... DOUBLE
Compression type for matrix containers    ... UNCOMPRESSED
Overall scaling of the MP2 energy         ...   2.700e-01 Eh
Calculating two index integrals           ... done (    0.012 sec)
Cholesky decomposition of the V-matrix    ... done
Cholesky decomposition of V**-1           ... done (    0.024 sec)

-----------------
RI-TRANSFORMATION (AUX index driven)
-----------------

Dimension of the orbital-basis         ... 259
Dimension of the aux-basis             ... 493
Transformation of internal MOs         ...    0-  45
Transformation of internal/external MOs...    0-  45 to   46- 258
Number Format for Storage              ... Double (8 Byte)
Integral mode                          ... Direct

First Phase: integral generation and transformation of MO indices
  Aux angular momentum 0               ... done (    0.571 sec)
  Aux angular momentum 1               ... done (    0.453 sec)
  Aux angular momentum 2               ... done (    0.497 sec)
  Aux angular momentum 3               ... done (    0.274 sec)
  Aux angular momentum 4               ... done (    0.231 sec)
Closing buffer VIJ ( 0.00 GB; CompressionRatio= 1.95)
Closing buffer VIA ( 0.04 GB; CompressionRatio= 1.00)
  Phase 1 completed in     2.144 sec
Second Phase: sorting and transformation of aux index

IJ-Transformation
Memory available                       ... 990 MB 
Max. # MO pairs treated in a batch     ... 46    
# of internal orbitals                 ... 46
# batches for internal orbitals        ... 1
Closing buffer IJV ( 0.00 GB; CompressionRatio= 1.00)
(ij|v) transformation done in     0.122 sec

IA-Transformation
Memory available                       ... 990 MB 
Max. # MO pairs treated in a batch     ... 46    
# of internal orbitals                 ... 46
# batches for internal orbitals        ... 1
Closing buffer IAV ( 0.04 GB; CompressionRatio= 1.00)
(ia|v) transformation done in     0.420 sec

  Phase 2 completed in     0.566 sec
RI-Integral transformation completed in     2.710 sec
Opening buffers                              ... done

Starting loop over batches of integrals:

Operator 0  - window                       ... (  0- 45)x( 46-258)
Operator 0  - Memory available             ...  1000 MB
Operator 0  - Memory needed per MO         ...   1.6 MB
Operator 0  - Number of orbitals per batch ... 46
Operator 0  - Number of batches            ... 1

OPERATOR  0   PASS   0:  MOs     0 ...   45
  Reading integrals       ... ok
  Internal MO   2
  Internal MO   5
  Internal MO   8
  Internal MO  11
  Internal MO  14
  Internal MO  17
  Internal MO  20
  Internal MO  23
  Internal MO  26
  Internal MO  29
  Internal MO  32
  Internal MO  35
  Internal MO  38
  Internal MO  41
  Internal MO  44
Closing buffer GIPV ( 0.04 GB; CompressionRatio= 1.00)
Time spent in pair loops =    50.831 sec

-----------------------------------------------
 RI-MP2 CORRELATION ENERGY:     -0.581179015 Eh
-----------------------------------------------


---------------------
MP2 DENSITY FORMATION
---------------------

Completing the external part of the density      ... done
Storing the unrelaxed density                    ... done

Calculating the xc-kernel                        ... done
Calculating G(D)                                 ... done
Completing the Lagrangian                        ... done
Solving the Z-vector equations                   ... 

------------------------------------------------------------------------------
                           ORCA CP-SCF CALCULATION
------------------------------------------------------------------------------

Input orbitals are from        ... PbMACl3_mp2_md_5.orca.gbw
Input Perturbation             ... PbMACl3_mp2_md_5.orca.pin.tmp
Wavefunction output            ... PbMACl3_mp2_md_5.orca.pout.tmp
Perturbation mode              ... Real perturbation
Solver                         ... DIIS
   MaxDIIS                     ... 20
   Levelshift                  ...    3.000e-01 Eh
Max. number of iterations      ... 128
Convergence tolerance          ... 1.000e-08
Integral handling              ... Direct
COSX GridX                     ... 1
Number of perturbations        ... 1
Number of operators            ... 1
Orbital ranges used for CP-SCF:
 Operator 0:  Orbitals   0... 45  to  46...258
DFT calculation                         ... on
Exchange functional (SCF)               ... B88
Exchange functional (CP-SCF)            ... B88
   X-Alpha parameter    XAlpha (SCF)    ...  0.666667
   X-Alpha parameter    XAlpha (CP-SCF) ...  0.666667
   Becke's b parameter  XBeta (SCF)     ...  0.004200
   Becke's b parameter  XBeta (CP-SCF)  ...  0.004200
Correlation functional (SCF)            ... LYP
Correlation functional (CP-SCF)         ... LYP
 LDA part of GGA corr.  LDAOpt (SCF)    ... VWN-3
 LDA part of GGA corr.  LDAOpt (CP-SCF) ... VWN-3
Hybrid DFT                              ... on
   Exchange mixing (SCF)                ...  0.530
   Exchange mixing (CP-SCF)             ...  0.530
   GGA exch. scaling(SCF)               ...  0.470
   GGA exch. scaling (CP-SCF)           ...  0.470
   GGA corr. scaling (SCF)              ...  0.730
   GGA corr. scaling (CP-SCF)           ...  0.730
The RIJCOSX approximation is active
Variables per vector in CP-SCF ... 9798
Number of vectors sought       ... 1
Calculating the xc-kernel      ... done

Solving the CP-SCF equations by a DIIS algorithm

-----------------
CP-SCF ITERATIONS
-----------------
  Iteration   0: MaxR=  0.086192637
  Iteration   1: MaxR=  0.038045008
  Iteration   2: MaxR=  0.012847960
  Iteration   3: MaxR=  0.006059544
  Iteration   4: MaxR=  0.003514181
  Iteration   5: MaxR=  0.001606207
  Iteration   6: MaxR=  0.000653913
  Iteration   7: MaxR=  0.000204748
  Iteration   8: MaxR=  0.000083788
  Iteration   9: MaxR=  0.000029069
  Iteration  10: MaxR=  0.000013631
  Iteration  11: MaxR=  0.000005216
  Iteration  12: MaxR=  0.000002129
  Iteration  13: MaxR=  0.000000742
  Iteration  14: MaxR=  0.000000273
  Iteration  15: MaxR=  0.000000095
  Iteration  16: MaxR=  0.000000029
  Iteration  17: MaxR=  0.000000012
  Iteration  18: MaxR=  0.000000005
                              *** THE CP-SCF HAS CONVERGED *** 
done
Finalizing the relaxed density                   ... done
Transforming P to the AO basis                   ... done
Storing the relaxed density                      ... done

------------------------------------
ENERGY WEIGHTED DENSITY FINALIZATION
------------------------------------

Gathering the parts of the W-matrix              ... done
Forming the Z-density                            ... done
Transforming Z to the AO basis                   ... done
Calculating G(Z)                                 ... done
Finalizing the W-matrix                          ... done
Transforming W to the AO basis and storing       ... done
Entering the RIJONX and RIJCOSX sections
Starting the three-index derivative integrals:
Operator 0  - Memory available             ...  1000 MB
Operator 0  - Memory needed per MO         ...   1.0 MB
Operator 0  - Number of orbitals per batch ... 46
Operator 0  - Number of batches            ... 1

OPERATOR  0   PASS   0:  MOs     0 ...   45

----------------------------------
MP2 DERIVATIVE INTEGRAL GENERATION
----------------------------------


Input Correlated Electron Density   ... PbMACl3_mp2_md_5.orca.pmp2re
Input Energy Weighted Density       ... PbMACl3_mp2_md_5.orca.wmp2.tmp
Input SCF Electron Density          ... PbMACl3_mp2_md_5.orca.scfp.tmp

One-Electron Terms    ...
  ECP gradient                                           ... One-Electron Terms done

-----------------------------------------------------------
MP2 COSX Grid Generation
-----------------------------------------------------------

General Integration Accuracy     IntAcc      ...  4.340
Radial Grid Type                 RadialGrid  ... Gauss-Chebyshev
Angular Grid (max. acc.)         AngularGrid ... Lebedev-302
Angular grid pruning method      GridPruning ... 3 (G Style)
Weight generation scheme         WeightScheme... Becke
Basis function cutoff            BFCut       ...    1.0000e-11
Integration weight cutoff        WCut        ...    1.0000e-14
Grids for H and He will be reduced by one unit

# of grid points (after initial pruning)     ...  57718 (   0.0 sec)
# of grid points (after weights+screening)   ...  54316 (   0.1 sec)
nearest neighbour list constructed           ...    0.0 sec
Grid point re-assignment to atoms done       ...    0.0 sec
Grid point division into batches done        ...    0.2 sec
Reduced shell lists constructed in    1.6 sec

Total number of grid points                  ...    54316
Total number of batches                      ...      855
Average number of points per batch           ...       63
Average number of grid points per atom       ...     4526
Average number of shells per batch           ...    55.34 (54.79%)
Average number of basis functions per batch  ...   146.57 (56.59%)
Average number of large shells per batch     ...    41.90 (75.72%)
Average number of large basis fcns per batch ...   109.14 (74.46%)
Maximum spatial batch extension              ...  29.19, 25.78, 40.43 au
Average spatial batch extension              ...   3.02,  3.00,  3.38 au

Overlap Fitting                  UseSFitting ... on
Two electron COSX terms .... 
Integration Timings:
Total Time                  =    87.9 sec
Basis fcn evaluation        =     0.7 sec
Density evaluation          =     1.3 sec
Integral evaluation         =    83.5 sec
K(P) evaluation             =     0.9 sec
                          .... COSX two electron terms done
COSX two-electron contribution to the gradient
     0:     0.025263    -0.018788    -0.013944
     1:     0.015464     0.032977     0.117708
     2:     0.035247     0.108952    -0.170158
     3:    -0.180622    -0.021602    -0.059854
     4:     0.109186    -0.182134    -0.004595
     5:    -0.108561     0.130658     0.000219
     6:     0.153973     0.067637     0.009409
     7:    -0.046133    -0.116758     0.120562
     8:     0.024470     0.023869    -0.021693
     9:     0.043883    -0.018599    -0.008743
    10:    -0.011811     0.050158     0.006042
    11:    -0.061573    -0.055800     0.024811
Exchange-correlation gradient    ... done
Dispersion correction            ... 
Entering the calculation of the dispersion correction...

Checking the input atom types...

Done
done

                *********************************************
                * UNRELAXED MP2 DENSITY POPULATION ANALYSIS *
                *********************************************

------------------------------------------------------------------------------
                           ORCA POPULATION ANALYSIS
------------------------------------------------------------------------------
Input electron density              ... PbMACl3_mp2_md_5.orca.pmp2ur
BaseName (.gbw .S,...)              ... PbMACl3_mp2_md_5.orca

                    ********************************
                    * MULLIKEN POPULATION ANALYSIS *
                    ********************************

-----------------------
MULLIKEN ATOMIC CHARGES
-----------------------
   0 C :   -0.242580
   1 N :   -0.226236
   2 H :    0.276481
   3 H :    0.266636
   4 H :    0.238252
   5 H :    0.174498
   6 H :    0.158305
   7 H :    0.183494
   8 Pb:    0.780711
   9 Cl:   -0.571097
  10 Cl:   -0.539516
  11 Cl:   -0.498950
Sum of atomic charges:   -0.0000000

--------------------------------
MULLIKEN REDUCED ORBITAL CHARGES
--------------------------------
  0 C s       :     3.282117  s :     3.282117
      pz      :     0.774341  p :     2.879986
      px      :     1.083893
      py      :     1.021753
      dz2     :     0.020385  d :     0.073792
      dxz     :     0.008462
      dyz     :     0.018978
      dx2y2   :     0.011602
      dxy     :     0.014364
      f0      :     0.001132  f :     0.006685
      f+1     :     0.000819
      f-1     :     0.001803
      f+2     :     0.000756
      f-2     :     0.000750
      f+3     :     0.000706
      f-3     :     0.000719
  1 N s       :     3.397947  s :     3.397947
      pz      :     1.218039  p :     3.772181
      px      :     1.297664
      py      :     1.256477
      dz2     :     0.014077  d :     0.052892
      dxz     :     0.010317
      dyz     :     0.013590
      dx2y2   :     0.008287
      dxy     :     0.006621
      f0      :     0.000450  f :     0.003216
      f+1     :     0.000308
      f-1     :     0.000883
      f+2     :     0.000392
      f-2     :     0.000256
      f+3     :     0.000791
      f-3     :     0.000135
  2 H s       :     0.690898  s :     0.690898
      pz      :     0.015651  p :     0.032620
      px      :     0.007518
      py      :     0.009451
  3 H s       :     0.689402  s :     0.689402
      pz      :     0.008476  p :     0.043962
      px      :     0.028702
      py      :     0.006784
  4 H s       :     0.713735  s :     0.713735
      pz      :     0.008360  p :     0.048013
      px      :     0.012070
      py      :     0.027583
  5 H s       :     0.802669  s :     0.802669
      pz      :     0.003316  p :     0.022833
      px      :     0.009361
      py      :     0.010156
  6 H s       :     0.819300  s :     0.819300
      pz      :     0.003254  p :     0.022395
      px      :     0.013544
      py      :     0.005598
  7 H s       :     0.793929  s :     0.793929
      pz      :     0.009237  p :     0.022577
      px      :     0.004614
      py      :     0.008726
  8 Pbs       :     3.924405  s :     3.924405
      pz      :     2.380866  p :     7.042893
      px      :     2.331440
      py      :     2.330587
      dz2     :     2.026604  d :    10.136778
      dxz     :     2.024304
      dyz     :     2.019051
      dx2y2   :     2.040186
      dxy     :     2.026633
      f0      :     0.011438  f :     0.115212
      f+1     :     0.011172
      f-1     :     0.011920
      f+2     :     0.015936
      f-2     :     0.013507
      f+3     :     0.024915
      f-3     :     0.026324
  9 Cls       :     5.947661  s :     5.947661
      pz      :     3.908603  p :    11.560750
      px      :     3.765697
      py      :     3.886450
      dz2     :     0.010903  d :     0.059137
      dxz     :     0.010367
      dyz     :     0.009088
      dx2y2   :     0.016716
      dxy     :     0.012063
      f0      :     0.000468  f :     0.003549
      f+1     :     0.000560
      f-1     :     0.000423
      f+2     :     0.000461
      f-2     :     0.000416
      f+3     :     0.000594
      f-3     :     0.000627
 10 Cls       :     5.946837  s :     5.946837
      pz      :     3.888822  p :    11.524486
      px      :     3.888112
      py      :     3.747552
      dz2     :     0.011148  d :     0.064278
      dxz     :     0.010183
      dyz     :     0.012948
      dx2y2   :     0.017831
      dxy     :     0.012169
      f0      :     0.000519  f :     0.003914
      f+1     :     0.000416
      f-1     :     0.000589
      f+2     :     0.000612
      f-2     :     0.000446
      f+3     :     0.000625
      f-3     :     0.000707
 11 Cls       :     5.946592  s :     5.946592
      pz      :     3.890610  p :    11.488030
      px      :     3.785779
      py      :     3.811641
      dz2     :     0.010394  d :     0.060386
      dxz     :     0.011753
      dyz     :     0.011428
      dx2y2   :     0.011119
      dxy     :     0.015691
      f0      :     0.000513  f :     0.003942
      f+1     :     0.000496
      f-1     :     0.000483
      f+2     :     0.000459
      f-2     :     0.000693
      f+3     :     0.000633
      f-3     :     0.000664


                     *******************************
                     * LOEWDIN POPULATION ANALYSIS *
                     *******************************

----------------------
LOEWDIN ATOMIC CHARGES
----------------------
   0 C :   -0.257368
   1 N :    0.138993
   2 H :    0.213744
   3 H :    0.156727
   4 H :    0.092931
   5 H :    0.128335
   6 H :    0.120985
   7 H :    0.141887
   8 Pb:   -0.206365
   9 Cl:   -0.232985
  10 Cl:   -0.153418
  11 Cl:   -0.143466

-------------------------------
LOEWDIN REDUCED ORBITAL CHARGES
-------------------------------
  0 C s       :     2.887541  s :     2.887541
      pz      :     0.887669  p :     3.060512
      px      :     1.120367
      py      :     1.052475
      dz2     :     0.076780  d :     0.276069
      dxz     :     0.033569
      dyz     :     0.079441
      dx2y2   :     0.034553
      dxy     :     0.051726
      f0      :     0.005617  f :     0.033246
      f+1     :     0.006306
      f-1     :     0.007625
      f+2     :     0.005308
      f-2     :     0.004119
      f+3     :     0.002043
      f-3     :     0.002228
  1 N s       :     2.973398  s :     2.973398
      pz      :     1.204874  p :     3.714669
      px      :     1.258780
      py      :     1.251015
      dz2     :     0.044553  d :     0.162137
      dxz     :     0.026170
      dyz     :     0.040053
      dx2y2   :     0.030722
      dxy     :     0.020639
      f0      :     0.001557  f :     0.010803
      f+1     :     0.001833
      f-1     :     0.002077
      f+2     :     0.001441
      f-2     :     0.001319
      f+3     :     0.002221
      f-3     :     0.000355
  2 H s       :     0.693135  s :     0.693135
      pz      :     0.042864  p :     0.093121
      px      :     0.020808
      py      :     0.029449
  3 H s       :     0.714676  s :     0.714676
      pz      :     0.022623  p :     0.128596
      px      :     0.085748
      py      :     0.020226
  4 H s       :     0.751690  s :     0.751690
      pz      :     0.028999  p :     0.155379
      px      :     0.042369
      py      :     0.084011
  5 H s       :     0.807173  s :     0.807173
      pz      :     0.009613  p :     0.064492
      px      :     0.026587
      py      :     0.028292
  6 H s       :     0.814575  s :     0.814575
      pz      :     0.009843  p :     0.064439
      px      :     0.038424
      py      :     0.016173
  7 H s       :     0.795522  s :     0.795522
      pz      :     0.023950  p :     0.062591
      px      :     0.013367
      py      :     0.025274
  8 Pbs       :     3.659742  s :     3.659742
      pz      :     2.475253  p :     7.533354
      px      :     2.524687
      py      :     2.533415
      dz2     :     2.134301  d :    10.724658
      dxz     :     2.094243
      dyz     :     2.099744
      dx2y2   :     2.219206
      dxy     :     2.177164
      f0      :     0.024998  f :     0.288611
      f+1     :     0.024307
      f-1     :     0.025521
      f+2     :     0.033901
      f-2     :     0.031948
      f+3     :     0.066332
      f-3     :     0.081604
  9 Cls       :     5.739066  s :     5.739066
      pz      :     3.856655  p :    11.405320
      px      :     3.734364
      py      :     3.814301
      dz2     :     0.016364  d :     0.083438
      dxz     :     0.010513
      dyz     :     0.009084
      dx2y2   :     0.030558
      dxy     :     0.016919
      f0      :     0.000473  f :     0.005161
      f+1     :     0.001034
      f-1     :     0.000470
      f+2     :     0.000498
      f-2     :     0.000424
      f+3     :     0.001086
      f-3     :     0.001176
 10 Cls       :     5.707030  s :     5.707030
      pz      :     3.831812  p :    11.346174
      px      :     3.801512
      py      :     3.712850
      dz2     :     0.014297  d :     0.094147
      dxz     :     0.011301
      dyz     :     0.019998
      dx2y2   :     0.034681
      dxy     :     0.013870
      f0      :     0.000784  f :     0.006067
      f+1     :     0.000433
      f-1     :     0.000830
      f+2     :     0.001146
      f-2     :     0.000499
      f+3     :     0.000909
      f-3     :     0.001466
 11 Cls       :     5.716464  s :     5.716464
      pz      :     3.830736  p :    11.338290
      px      :     3.741981
      py      :     3.765573
      dz2     :     0.011057  d :     0.082993
      dxz     :     0.017710
      dyz     :     0.016679
      dx2y2   :     0.010733
      dxy     :     0.026813
      f0      :     0.000853  f :     0.005720
      f+1     :     0.000503
      f-1     :     0.000490
      f+2     :     0.000477
      f-2     :     0.001479
      f+3     :     0.000892
      f-3     :     0.001026


                      *****************************
                      * MAYER POPULATION ANALYSIS *
                      *****************************

  NA   - Mulliken gross atomic population
  ZA   - Total nuclear charge
  QA   - Mulliken gross atomic charge
  VA   - Mayer's total valence
  BVA  - Mayer's bonded valence
  FA   - Mayer's free valence

  ATOM       NA         ZA         QA         VA         BVA        FA
  0 C      6.2426     6.0000    -0.2426     3.8152     3.6978     0.1174
  1 N      7.2262     7.0000    -0.2262     3.5130     3.3750     0.1380
  2 H      0.7235     1.0000     0.2765     0.9262     0.9063     0.0199
  3 H      0.7334     1.0000     0.2666     0.9862     0.9655     0.0207
  4 H      0.7617     1.0000     0.2383     1.0321     1.0148     0.0174
  5 H      0.8255     1.0000     0.1745     0.9763     0.9571     0.0192
  6 H      0.8417     1.0000     0.1583     0.9618     0.9432     0.0187
  7 H      0.8165     1.0000     0.1835     0.9764     0.9575     0.0189
  8 Pb    21.2193    22.0000     0.7807     2.2740     1.8978     0.3762
  9 Cl    17.5711    17.0000    -0.5711     0.9514     0.6898     0.2616
 10 Cl    17.5395    17.0000    -0.5395     0.9978     0.7353     0.2625
 11 Cl    17.4989    17.0000    -0.4989     1.0716     0.8094     0.2622

  Mayer bond orders larger than 0.1
B(  0-C ,  1-N ) :   0.8523 B(  0-C ,  5-H ) :   0.9422 B(  0-C ,  6-H ) :   0.9420 
B(  0-C ,  7-H ) :   0.9411 B(  1-N ,  2-H ) :   0.8779 B(  1-N ,  3-H ) :   0.8279 
B(  1-N ,  4-H ) :   0.8654 B(  3-H , 10-Cl) :   0.1394 B(  4-H ,  9-Cl) :   0.1404 
B(  8-Pb,  9-Cl) :   0.5422 B(  8-Pb, 10-Cl) :   0.5569 B(  8-Pb, 11-Cl) :   0.7862 



                *******************************************
                * RELAXED MP2 DENSITY POPULATION ANALYSIS *
                *******************************************

------------------------------------------------------------------------------
                           ORCA POPULATION ANALYSIS
------------------------------------------------------------------------------
Input electron density              ... PbMACl3_mp2_md_5.orca.pmp2re
BaseName (.gbw .S,...)              ... PbMACl3_mp2_md_5.orca

                    ********************************
                    * MULLIKEN POPULATION ANALYSIS *
                    ********************************

-----------------------
MULLIKEN ATOMIC CHARGES
-----------------------
   0 C :   -0.259507
   1 N :   -0.222325
   2 H :    0.275277
   3 H :    0.259480
   4 H :    0.233779
   5 H :    0.176147
   6 H :    0.161012
   7 H :    0.186962
   8 Pb:    0.725591
   9 Cl:   -0.547089
  10 Cl:   -0.514230
  11 Cl:   -0.475096
Sum of atomic charges:   -0.0000000

--------------------------------
MULLIKEN REDUCED ORBITAL CHARGES
--------------------------------
  0 C s       :     3.284900  s :     3.284900
      pz      :     0.782956  p :     2.898649
      px      :     1.088759
      py      :     1.026935
      dz2     :     0.019268  d :     0.069438
      dxz     :     0.008487
      dyz     :     0.017553
      dx2y2   :     0.010979
      dxy     :     0.013152
      f0      :     0.001112  f :     0.006520
      f+1     :     0.000797
      f-1     :     0.001741
      f+2     :     0.000738
      f-2     :     0.000740
      f+3     :     0.000689
      f-3     :     0.000704
  1 N s       :     3.398793  s :     3.398793
      pz      :     1.214717  p :     3.769044
      px      :     1.298063
      py      :     1.256264
      dz2     :     0.013666  d :     0.051332
      dxz     :     0.010330
      dyz     :     0.012985
      dx2y2   :     0.007970
      dxy     :     0.006382
      f0      :     0.000449  f :     0.003156
      f+1     :     0.000304
      f-1     :     0.000853
      f+2     :     0.000389
      f-2     :     0.000257
      f+3     :     0.000768
      f-3     :     0.000136
  2 H s       :     0.692492  s :     0.692492
      pz      :     0.015250  p :     0.032231
      px      :     0.007614
      py      :     0.009367
  3 H s       :     0.696945  s :     0.696945
      pz      :     0.008468  p :     0.043575
      px      :     0.028233
      py      :     0.006875
  4 H s       :     0.718616  s :     0.718616
      pz      :     0.008408  p :     0.047605
      px      :     0.012056
      py      :     0.027142
  5 H s       :     0.801415  s :     0.801415
      pz      :     0.003409  p :     0.022438
      px      :     0.009169
      py      :     0.009859
  6 H s       :     0.816955  s :     0.816955
      pz      :     0.003353  p :     0.022033
      px      :     0.013088
      py      :     0.005592
  7 H s       :     0.790867  s :     0.790867
      pz      :     0.008993  p :     0.022171
      px      :     0.004644
      py      :     0.008535
  8 Pbs       :     3.937381  s :     3.937381
      pz      :     2.381227  p :     7.087693
      px      :     2.354257
      py      :     2.352208
      dz2     :     2.025113  d :    10.136189
      dxz     :     2.025051
      dyz     :     2.018847
      dx2y2   :     2.040047
      dxy     :     2.027131
      f0      :     0.011236  f :     0.113146
      f+1     :     0.010921
      f-1     :     0.011721
      f+2     :     0.015690
      f-2     :     0.013194
      f+3     :     0.024578
      f-3     :     0.025806
  9 Cls       :     5.948236  s :     5.948236
      pz      :     3.900990  p :    11.535956
      px      :     3.757644
      py      :     3.877321
      dz2     :     0.010937  d :     0.059338
      dxz     :     0.010355
      dyz     :     0.009087
      dx2y2   :     0.016848
      dxy     :     0.012112
      f0      :     0.000470  f :     0.003559
      f+1     :     0.000559
      f-1     :     0.000424
      f+2     :     0.000463
      f-2     :     0.000416
      f+3     :     0.000597
      f-3     :     0.000630
 10 Cls       :     5.947317  s :     5.947317
      pz      :     3.878596  p :    11.498355
      px      :     3.878642
      py      :     3.741116
      dz2     :     0.011118  d :     0.064632
      dxz     :     0.010249
      dyz     :     0.013097
      dx2y2   :     0.017946
      dxy     :     0.012222
      f0      :     0.000520  f :     0.003926
      f+1     :     0.000417
      f-1     :     0.000589
      f+2     :     0.000614
      f-2     :     0.000448
      f+3     :     0.000631
      f-3     :     0.000707
 11 Cls       :     5.947303  s :     5.947303
      pz      :     3.880164  p :    11.463557
      px      :     3.778489
      py      :     3.804904
      dz2     :     0.010306  d :     0.060287
      dxz     :     0.011837
      dyz     :     0.011508
      dx2y2   :     0.011133
      dxy     :     0.015504
      f0      :     0.000511  f :     0.003949
      f+1     :     0.000498
      f-1     :     0.000484
      f+2     :     0.000462
      f-2     :     0.000692
      f+3     :     0.000636
      f-3     :     0.000665


                     *******************************
                     * LOEWDIN POPULATION ANALYSIS *
                     *******************************

----------------------
LOEWDIN ATOMIC CHARGES
----------------------
   0 C :   -0.267747
   1 N :    0.135907
   2 H :    0.214268
   3 H :    0.155223
   4 H :    0.091864
   5 H :    0.129646
   6 H :    0.122729
   7 H :    0.143832
   8 Pb:   -0.236190
   9 Cl:   -0.219746
  10 Cl:   -0.140613
  11 Cl:   -0.129173

-------------------------------
LOEWDIN REDUCED ORBITAL CHARGES
-------------------------------
  0 C s       :     2.889277  s :     2.889277
      pz      :     0.893914  p :     3.074241
      px      :     1.123742
      py      :     1.056585
      dz2     :     0.075331  d :     0.271236
      dxz     :     0.033634
      dyz     :     0.077720
      dx2y2   :     0.033961
      dxy     :     0.050591
      f0      :     0.005565  f :     0.032993
      f+1     :     0.006291
      f-1     :     0.007520
      f+2     :     0.005277
      f-2     :     0.004100
      f+3     :     0.002026
      f-3     :     0.002213
  1 N s       :     2.975091  s :     2.975091
      pz      :     1.203896  p :     3.716312
      px      :     1.261083
      py      :     1.251333
      dz2     :     0.044502  d :     0.161851
      dxz     :     0.026332
      dyz     :     0.039787
      dx2y2   :     0.030747
      dxy     :     0.020483
      f0      :     0.001559  f :     0.010839
      f+1     :     0.001848
      f-1     :     0.002085
      f+2     :     0.001448
      f-2     :     0.001323
      f+3     :     0.002222
      f-3     :     0.000354
  2 H s       :     0.692782  s :     0.692782
      pz      :     0.042507  p :     0.092950
      px      :     0.020960
      py      :     0.029483
  3 H s       :     0.716004  s :     0.716004
      pz      :     0.022515  p :     0.128773
      px      :     0.085908
      py      :     0.020350
  4 H s       :     0.752671  s :     0.752671
      pz      :     0.029015  p :     0.155465
      px      :     0.042429
      py      :     0.084021
  5 H s       :     0.805816  s :     0.805816
      pz      :     0.009833  p :     0.064538
      px      :     0.026544
      py      :     0.028162
  6 H s       :     0.812765  s :     0.812765
      pz      :     0.010071  p :     0.064506
      px      :     0.038170
      py      :     0.016265
  7 H s       :     0.793560  s :     0.793560
      pz      :     0.023873  p :     0.062608
      px      :     0.013492
      py      :     0.025243
  8 Pbs       :     3.672666  s :     3.672666
      pz      :     2.472226  p :     7.559658
      px      :     2.539793
      py      :     2.547639
      dz2     :     2.131530  d :    10.718073
      dxz     :     2.094165
      dyz     :     2.098972
      dx2y2   :     2.217374
      dxy     :     2.176032
      f0      :     0.024714  f :     0.285793
      f+1     :     0.023759
      f-1     :     0.025004
      f+2     :     0.033569
      f-2     :     0.031592
      f+3     :     0.065948
      f-3     :     0.081207
  9 Cls       :     5.742034  s :     5.742034
      pz      :     3.850212  p :    11.388026
      px      :     3.729817
      py      :     3.807996
      dz2     :     0.016587  d :     0.084457
      dxz     :     0.010512
      dyz     :     0.009092
      dx2y2   :     0.031069
      dxy     :     0.017196
      f0      :     0.000476  f :     0.005230
      f+1     :     0.001050
      f-1     :     0.000473
      f+2     :     0.000500
      f-2     :     0.000425
      f+3     :     0.001109
      f-3     :     0.001198
 10 Cls       :     5.710374  s :     5.710374
      pz      :     3.823757  p :    11.328364
      px      :     3.794846
      py      :     3.709762
      dz2     :     0.014556  d :     0.095703
      dxz     :     0.011423
      dyz     :     0.020109
      dx2y2   :     0.035467
      dxy     :     0.014148
      f0      :     0.000789  f :     0.006170
      f+1     :     0.000436
      f-1     :     0.000854
      f+2     :     0.001152
      f-2     :     0.000503
      f+3     :     0.000933
      f-3     :     0.001504
 11 Cls       :     5.719719  s :     5.719719
      pz      :     3.821779  p :    11.319373
      px      :     3.736672
      py      :     3.760923
      dz2     :     0.011149  d :     0.084251
      dxz     :     0.017965
      dyz     :     0.016896
      dx2y2   :     0.010888
      dxy     :     0.027354
      f0      :     0.000867  f :     0.005830
      f+1     :     0.000509
      f-1     :     0.000495
      f+2     :     0.000484
      f-2     :     0.001507
      f+3     :     0.000915
      f-3     :     0.001054


                      *****************************
                      * MAYER POPULATION ANALYSIS *
                      *****************************

  NA   - Mulliken gross atomic population
  ZA   - Total nuclear charge
  QA   - Mulliken gross atomic charge
  VA   - Mayer's total valence
  BVA  - Mayer's bonded valence
  FA   - Mayer's free valence

  ATOM       NA         ZA         QA         VA         BVA        FA
  0 C      6.2595     6.0000    -0.2595     3.8156     3.6985     0.1171
  1 N      7.2223     7.0000    -0.2223     3.5145     3.3768     0.1376
  2 H      0.7247     1.0000     0.2753     0.9267     0.9069     0.0199
  3 H      0.7405     1.0000     0.2595     0.9940     0.9735     0.0205
  4 H      0.7662     1.0000     0.2338     1.0397     1.0224     0.0173
  5 H      0.8239     1.0000     0.1761     0.9779     0.9589     0.0191
  6 H      0.8390     1.0000     0.1610     0.9612     0.9426     0.0186
  7 H      0.8130     1.0000     0.1870     0.9770     0.9582     0.0188
  8 Pb    21.2744    22.0000     0.7256     2.3600     1.9905     0.3695
  9 Cl    17.5471    17.0000    -0.5471     0.9968     0.7367     0.2601
 10 Cl    17.5142    17.0000    -0.5142     1.0455     0.7846     0.2610
 11 Cl    17.4751    17.0000    -0.4751     1.1149     0.8545     0.2604

  Mayer bond orders larger than 0.1
B(  0-C ,  1-N ) :   0.8617 B(  0-C ,  5-H ) :   0.9390 B(  0-C ,  6-H ) :   0.9391 
B(  0-C ,  7-H ) :   0.9379 B(  1-N ,  2-H ) :   0.8760 B(  1-N ,  3-H ) :   0.8228 
B(  1-N ,  4-H ) :   0.8619 B(  3-H , 10-Cl) :   0.1520 B(  4-H ,  9-Cl) :   0.1509 
B(  8-Pb,  9-Cl) :   0.5695 B(  8-Pb, 10-Cl) :   0.5811 B(  8-Pb, 11-Cl) :   0.8241 



-------
TIMINGS
-------

Total time                :  562.909 sec
Integral trafo            :    2.725 sec (  0.5%)
I/O of integrals          :    0.381 sec (  0.1%)
K(i,j) Operators          :    6.547 sec (  1.2%)
T(i,j) pair energies      :    1.228 sec (  0.2%)
V-calculation             :    0.012 sec (  0.0%)
V**(-1/2)                 :    0.024 sec (  0.0%)
Gamma(ia|P)               :    5.824 sec (  1.0%)
Gamma-Trafo               :    0.854 sec (  0.2%)
D(virtual)                :    2.452 sec (  0.4%)
D(internal)               :    4.628 sec (  0.8%)
W(virtual)                :    5.112 sec (  0.9%)
W(internal)               :   16.452 sec (  2.9%)
L(virtual)                :    6.598 sec (  1.2%)
L(internal)               :    0.646 sec (  0.1%)
G(D)                      :   14.519 sec (  2.6%)
G(Z)                      :   14.262 sec (  2.5%)
Z-Vector Solution         :  370.914 sec ( 65.9%)
Z-Vector Solution         :  370.914 sec ( 65.9%)
3-Index Derivative 
+ Separable RIJ part      :    5.043 sec (  0.9%)
2-Index Derivative 
+ Separable RIJ part      :    0.031 sec (  0.0%)
Separable Gradient (COSX) :  103.246 sec ( 18.3%)


---------------------------------------
MP2 TOTAL ENERGY:    -1669.543718420 Eh
---------------------------------------

The final MP2 gradient
  0:   0.01769522   0.00853844   0.01371637
  1:   0.03567917  -0.15930994   0.02421210
  2:  -0.01175880   0.01190104  -0.02698848
  3:   0.01673281   0.00986689  -0.01987617
  4:  -0.05565192   0.11769051   0.00368854
  5:  -0.00868601   0.01235674  -0.00466505
  6:   0.00569144   0.00880710  -0.00170449
  7:  -0.00918514  -0.01880509   0.01134354
  8:   0.01790908   0.02904086   0.04902205
  9:  -0.03699695   0.01036686  -0.00940134
 10:   0.00963313  -0.04865914  -0.01833130
 11:   0.01764347   0.01872411  -0.02124045

-----------------------------------
NORM OF THE MP2 GRADIENT:  0.237753
-----------------------------------

Entering the calculation of the dispersion correction...

Checking the input atom types...

Done


-------------------------------------------------------------------------------
                          DFT DISPERSION CORRECTION                            
                                                                               
                                DFTD3 V2.1  Rev 6                               
                          USING Becke-Johnson damping                          
-------------------------------------------------------------------------------
The B2PLYP functional is recognized
Active option DFTDOPT                   ...         4   

molecular C6(AA) [au] = 4867.276282 


            DFT-D V3
 parameters
 s6 scaling factor         :     0.6400 
 a1 scaling factor         :     0.3065 
 s8 scaling factor         :     0.9147 
 a2 scaling factor         :     5.0570 
 ad hoc parameters k1-k3   :    16.0000     1.3333    -4.0000 

 Edisp/kcal,au: -8.470248673715  -0.013498199024 
 E6   /kcal   :  -3.854938779 
 E8   /kcal   :  -4.615309894 
 % E8         :  54.488481651 

-------------------------   ----------------
Dispersion correction           -0.013498199
-------------------------   ----------------


-------------------------   --------------------
FINAL SINGLE POINT ENERGY     -1669.557216619403
-------------------------   --------------------


                            ***************************************
                            *     ORCA property calculations      *
                            ***************************************


  WARNING: The energy has been calculated at the MP2 level but the densities
           used in the property calculations are still SCF densities
           MP2 response densities have not been calculated 
           use %mp2 Density relaxed end
           or  %mp2 Density unrelaxed end

                                    ---------------------
                                    Active property flags
                                    ---------------------
   (+) Dipole Moment


------------------------------------------------------------------------------
                       ORCA ELECTRIC PROPERTIES CALCULATION
------------------------------------------------------------------------------

Dipole Moment Calculation                       ... on
Quadrupole Moment Calculation                   ... off
Polarizability Calculation                      ... off
GBWName                                         ... PbMACl3_mp2_md_5.orca.gbw
Electron density file                           ... PbMACl3_mp2_md_5.orca.scfp.tmp

-------------
DIPOLE MOMENT
-------------
                                X             Y             Z
Electronic contribution:    -55.59343     -51.84434     -27.28845
Nuclear contribution   :     58.47018      55.19330      26.25531
                        -----------------------------------------
Total Dipole Moment    :      2.87675       3.34895      -1.03314
                        -----------------------------------------
Magnitude (a.u.)       :      4.53415
Magnitude (Debye)      :     11.52490


                         *** MP2 UNRELAXED DENSITY ***

------------------------------------------------------------------------------
                       ORCA ELECTRIC PROPERTIES CALCULATION
------------------------------------------------------------------------------

Dipole Moment Calculation                       ... on
Quadrupole Moment Calculation                   ... off
Polarizability Calculation                      ... off
GBWName                                         ... PbMACl3_mp2_md_5.orca.gbw
Electron density file                           ... PbMACl3_mp2_md_5.orca.pmp2ur

-------------
DIPOLE MOMENT
-------------
                                X             Y             Z
Electronic contribution:    -55.60250     -51.85660     -27.28288
Nuclear contribution   :     58.47018      55.19330      26.25531
                        -----------------------------------------
Total Dipole Moment    :      2.86768       3.33669      -1.02757
                        -----------------------------------------
Magnitude (a.u.)       :      4.51808
Magnitude (Debye)      :     11.48404


                           *** MP2 RELAXED DENSITY ***

------------------------------------------------------------------------------
                       ORCA ELECTRIC PROPERTIES CALCULATION
------------------------------------------------------------------------------

Dipole Moment Calculation                       ... on
Quadrupole Moment Calculation                   ... off
Polarizability Calculation                      ... off
GBWName                                         ... PbMACl3_mp2_md_5.orca.gbw
Electron density file                           ... PbMACl3_mp2_md_5.orca.pmp2re

-------------
DIPOLE MOMENT
-------------
                                X             Y             Z
Electronic contribution:    -55.65057     -51.90898     -27.30217
Nuclear contribution   :     58.47018      55.19330      26.25531
                        -----------------------------------------
Total Dipole Moment    :      2.81961       3.28431      -1.04686
                        -----------------------------------------
Magnitude (a.u.)       :      4.45341
Magnitude (Debye)      :     11.31966


Timings for individual modules:

Sum of individual times         ...      960.610 sec (=  16.010 min)
GTO integral calculation        ...        0.602 sec (=   0.010 min)   0.1 %
SCF iterations                  ...      396.930 sec (=   6.615 min)  41.3 %
MP2 module                      ...      563.079 sec (=   9.385 min)  58.6 %
                             ****ORCA TERMINATED NORMALLY****
TOTAL RUN TIME: 0 days 0 hours 16 minutes 1 seconds 134 msec
