
                                 *****************
                                 * O   R   C   A *
                                 *****************

           --- An Ab Initio, DFT and Semiempirical electronic structure package ---

                  #######################################################
                  #                        -***-                        #
                  #  Department of molecular theory and spectroscopy    #
                  #              Directorship: Frank Neese              #
                  # Max Planck Institute for Chemical Energy Conversion #
                  #                  D-45470 Muelheim/Ruhr              #
                  #                       Germany                       #
                  #                                                     #
                  #                  All rights reserved                #
                  #                        -***-                        #
                  #######################################################


                         Program Version 3.0.3 - RELEASE   -


 With contributions from (in alphabetic order):
   Ute Becker             : Parallelization
   Dmytro Bykov           : SCF Hessian
   Dmitry Ganyushin       : Spin-Orbit,Spin-Spin,Magnetic field MRCI
   Andreas Hansen         : Spin unrestricted coupled pair/coupled cluster methods
   Dimitrios Liakos       : Extrapolation schemes; parallel MDCI
   Robert Izsak           : Overlap fitted RIJCOSX, COSX-SCS-MP3
   Christian Kollmar      : KDIIS, OOCD, Brueckner-CCSD(T), CCSD density
   Simone Kossmann        : Meta GGA functionals, TD-DFT gradient, OOMP2, MP2 Hessian
   Taras Petrenko         : DFT Hessian,TD-DFT gradient, ASA and ECA modules, normal mode analysis, Resonance Raman, ABS, FL, XAS/XES, NRVS
   Christoph Reimann      : Effective Core Potentials
   Michael Roemelt        : Restricted open shell CIS
   Christoph Riplinger    : Improved optimizer, TS searches, QM/MM, DLPNO-CCSD
   Barbara Sandhoefer     : DKH picture change effects
   Igor Schapiro          : Molecular dynamics
   Kantharuban Sivalingam : CASSCF convergence, NEVPT2
   Boris Wezisla          : Elementary symmetry handling
   Frank Wennmohs         : Technical directorship


 We gratefully acknowledge several colleagues who have allowed us to
 interface, adapt or use parts of their codes:
   Stefan Grimme, W. Hujo, H. Kruse, T. Risthaus : VdW corrections, initial TS optimization,
                                                   DFT functionals, gCP
   Ed Valeev                                     : LibInt (2-el integral package), F12 methods
   Garnet Chan, S. Sharma, R. Olivares           : DMRG
   Ulf Ekstrom                                   : XCFun DFT Library
   Mihaly Kallay                                 : mrcc  (arbitrary order and MRCC methods)
   Andreas Klamt, Michael Diedenhofen            : otool_cosmo (COSMO solvation model)
   Frank Weinhold                                : gennbo (NPA and NBO analysis)
   Christopher J. Cramer and Donald G. Truhlar   : smd solvation model


 Your calculation uses the libint2 library for the computation of 2-el integrals
 For citations please refer to: http://libint.valeyev.net

 This ORCA versions uses:
   CBLAS   interface :  Fast vector & matrix operations
   LAPACKE interface :  Fast linear algebra routines
   SCALAPACK package :  Parallel linear algebra routines


Your calculation utilizes the basis: Ahlrichs-TZV
Cite in your paper:
H - Kr: A. Schaefer, H. Horn and R. Ahlrichs, J. Chem. Phys. 97, 2571 (1992).

The def2-TZV basis will be loaded
Cite in your paper:
 	F. Weigend, R. Ahlrichs, Phys. Chem. Chem. Phys. 2005, 7, 3297.

Your calculation utilizes the atom-pairwise dispersion correction
with the Becke-Johnson damping scheme (D3BJ)
Cite in your paper:
S.Grimme, S.Ehrlich, L.Goerigk, J Comput Chem, (2011), 32, 1456–1465 
S.Grimme, J.Antony, S.Ehrlich and H.Krieg, J.Chem.Phys., 132, (2010), 154104 
   

================================================================================
                                        WARNINGS
                       Please study these warnings very carefully!
================================================================================

WARNING: The RI method has been chosen with no auxiliary basis (AUX or GTOAUX in BASIS block)
        Standard TZV/J expansion basis used (GTOAUX=TZV_J)

Now building the actual basis set
cite the ECPs for Pb [SD(60,MDF)] as follows:
  B. Metz, H. Stoll, M. Dolg, J. Chem. Phys. 113, 2563 (2000).

ECP parameters for Pb [SD(60,MDF)] have been obtained from:
  pseudopotential library of the Stuttgart/Cologne group
  http://www.theochem.uni-stuttgart.de/pseudopotentials/

cite the ECP basis sets for Pb [DEF2-TZVP] as follows:
  F. Weigend, R. Ahlrichs; Phys. Chem. Chem. Phys. 7, 3297(2005).

ECP basis sets for Pb [DEF2-TZVP] have been obtained from:
  Turbomole basis set library
  ftp://ftp.chemie.uni-karlsruhe.de/pub/basen/



INFO   : the flag for use of LIBINT has been found!

================================================================================
                                       INPUT FILE
================================================================================
NAME = Pb2Cl11_6NH3CH3_-1_mp2_sp2_9.orca
|  1> ! RIJCOSX RI-B2PLYP D3BJ def2-TZVP ECP{def2-TZVP} TIGHTSCF Grid5 FinalGrid6 MORead
|  2> %maxcore 4000
|  3> %moinp "previous.gbw"
|  4> *xyz -1 1
|  5> C 3.321334 3.304660 2.430157 
|  6> N 2.356571 2.328752 1.891132 
|  7> H 3.929482 2.825089 3.202898 
|  8> H 2.779051 4.148026 2.867131 
|  9> H 3.970752 3.667461 1.628343 
| 10> H 1.712427 1.919960 2.626954 
| 11> H 2.798301 1.476145 1.466883 
| 12> H 1.726191 2.717573 1.143366 
| 13> Pb 0.008612 -0.178950 0.655288 
| 14> Cl 2.819241 -0.579595 0.728417 
| 15> Cl 0.227007 2.918192 -0.312156 
| 16> Cl 0.390479 0.706110 3.578622 
| 17> Cl -3.269175 -0.345526 0.015929 
| 18> Cl -0.041161 -1.145945 -2.209720 
| 19> Cl -0.499440 -2.787539 1.941320 
| 20> N -2.185808 -3.054212 -0.959335 
| 21> C -3.018599 -3.892984 -1.852407 
| 22> H -2.697680 -2.199715 -0.614166 
| 23> H -1.345672 -2.675212 -1.453465 
| 24> H -3.863008 -4.284793 -1.282203 
| 25> H -2.403708 -4.719219 -2.215644 
| 26> H -3.366846 -3.277457 -2.686457 
| 27> H -1.855008 -3.591944 -0.148281 
| 28> Cl 3.248679 -4.739445 1.418364 
| 29> Cl 1.057136 -5.297377 4.920051 
| 30> Pb 0.368326 -5.507619 1.561366 
| 31> N 2.161285 -2.658962 3.515767 
| 32> C 3.006676 -1.740565 4.311813 
| 33> H 2.698023 -3.156655 2.770259 
| 34> H 1.390718 -2.163400 3.045648 
| 35> H 3.799912 -2.319606 4.793333 
| 36> H 2.384520 -1.246095 5.060700 
| 37> H 3.427402 -0.991699 3.638613 
| 38> H 1.731703 -3.427574 4.095222 
| 39> Cl 0.368971 -5.534840 -1.226200 
| 40> H -2.444419 -8.567556 -2.232135 
| 41> H -0.598109 -7.323819 -1.165277 
| 42> H -1.004862 -9.612620 -2.073837 
| 43> C -1.775778 -9.065444 -1.523604 
| 44> N -1.147567 -8.055720 -0.651573 
| 45> Cl -2.566874 -5.885464 1.149947 
| 46> H -1.842497 -7.478800 -0.094428 
| 47> H -0.483324 -8.457680 0.056334 
| 48> H -2.352281 -9.766255 -0.913124 
| 49> Cl 0.869021 -8.649789 1.692607 
| 50> H -3.020852 1.137851 -3.759427 
| 51> H -2.443836 0.935457 -1.388789 
| 52> C -2.421148 1.915242 -3.276964 
| 53> H -3.072919 2.741318 -2.978333 
| 54> N -1.760461 1.345922 -2.088558 
| 55> H -1.130632 0.530708 -2.323343 
| 56> H -1.666594 2.281032 -3.979276 
| 57> H -1.165922 2.035435 -1.571092 
| 58> H 3.622704 -8.508951 4.939340 
| 59> H 2.344608 -7.817453 2.937850 
| 60> C 4.032137 -7.791101 4.222778 
| 61> H 4.696529 -8.309487 3.525223 
| 62> N 2.932785 -7.146076 3.481813 
| 63> H 2.277052 -6.592786 4.110347 
| 64> H 4.597499 -7.025510 4.762093 
| 65> H 3.269849 -6.425562 2.787786 
| 66> *
| 67> 
| 68>                          ****END OF INPUT****
================================================================================

                       ****************************
                       * Single Point Calculation *
                       ****************************

---------------------------------
CARTESIAN COORDINATES (ANGSTROEM)
---------------------------------
  C      3.321334    3.304660    2.430157
  N      2.356571    2.328752    1.891132
  H      3.929482    2.825089    3.202898
  H      2.779051    4.148026    2.867131
  H      3.970752    3.667461    1.628343
  H      1.712427    1.919960    2.626954
  H      2.798301    1.476145    1.466883
  H      1.726191    2.717573    1.143366
  Pb     0.008612   -0.178950    0.655288
  Cl     2.819241   -0.579595    0.728417
  Cl     0.227007    2.918192   -0.312156
  Cl     0.390479    0.706110    3.578622
  Cl    -3.269175   -0.345526    0.015929
  Cl    -0.041161   -1.145945   -2.209720
  Cl    -0.499440   -2.787539    1.941320
  N     -2.185808   -3.054212   -0.959335
  C     -3.018599   -3.892984   -1.852407
  H     -2.697680   -2.199715   -0.614166
  H     -1.345672   -2.675212   -1.453465
  H     -3.863008   -4.284793   -1.282203
  H     -2.403708   -4.719219   -2.215644
  H     -3.366846   -3.277457   -2.686457
  H     -1.855008   -3.591944   -0.148281
  Cl     3.248679   -4.739445    1.418364
  Cl     1.057136   -5.297377    4.920051
  Pb     0.368326   -5.507619    1.561366
  N      2.161285   -2.658962    3.515767
  C      3.006676   -1.740565    4.311813
  H      2.698023   -3.156655    2.770259
  H      1.390718   -2.163400    3.045648
  H      3.799912   -2.319606    4.793333
  H      2.384520   -1.246095    5.060700
  H      3.427402   -0.991699    3.638613
  H      1.731703   -3.427574    4.095222
  Cl     0.368971   -5.534840   -1.226200
  H     -2.444419   -8.567556   -2.232135
  H     -0.598109   -7.323819   -1.165277
  H     -1.004862   -9.612620   -2.073837
  C     -1.775778   -9.065444   -1.523604
  N     -1.147567   -8.055720   -0.651573
  Cl    -2.566874   -5.885464    1.149947
  H     -1.842497   -7.478800   -0.094428
  H     -0.483324   -8.457680    0.056334
  H     -2.352281   -9.766255   -0.913124
  Cl     0.869021   -8.649789    1.692607
  H     -3.020852    1.137851   -3.759427
  H     -2.443836    0.935457   -1.388789
  C     -2.421148    1.915242   -3.276964
  H     -3.072919    2.741318   -2.978333
  N     -1.760461    1.345922   -2.088558
  H     -1.130632    0.530708   -2.323343
  H     -1.666594    2.281032   -3.979276
  H     -1.165922    2.035435   -1.571092
  H      3.622704   -8.508951    4.939340
  H      2.344608   -7.817453    2.937850
  C      4.032137   -7.791101    4.222778
  H      4.696529   -8.309487    3.525223
  N      2.932785   -7.146076    3.481813
  H      2.277052   -6.592786    4.110347
  H      4.597499   -7.025510    4.762093
  H      3.269849   -6.425562    2.787786

----------------------------
CARTESIAN COORDINATES (A.U.)
----------------------------
  NO LB      ZA    FRAG    MASS        X           Y           Z
   0 C     6.0000    0    12.011          6.276411659281206          6.244902365724204          4.592331192431667
   1 N     7.0000    0    14.007          4.453273805140938          4.400703513821383          3.573721563094765
   2 H     1.0000    0     1.008          7.425644828173148          5.338644513953455          6.052600054884109
   3 H     1.0000    0     1.008          5.251645302199988          7.838633136384834          5.418092380075772
   4 H     1.0000    0     1.008          7.503633825720078          6.930496896836967          3.077122322087733
   5 H     1.0000    0     1.008          3.236018054332367          3.628198588083447          4.964223626408968
   6 H     1.0000    0     1.008          5.288022530277972          2.789509783957186          2.772007140504807
   7 H     1.0000    0     1.008          3.262028244839660          5.135468718938777          2.160648610837006
   8 Pb   22.0000*   0   207.200  0.016274321465330  -0.338166491665208  1.238314858844989
   9 Cl   17.0000    0    35.453          5.327593395522284         -1.095275818590088          1.376508641292516
  10 Cl   17.0000    0    35.453          0.428981060483062          5.514583686199925         -0.589889351060322
  11 Cl   17.0000    0    35.453          0.737898371047436          1.334354520423135          6.762615516825538
  12 Cl   17.0000    0    35.453         -6.177845433862008         -0.652949512149274          0.030101447587232
  13 Cl   17.0000    0    35.453         -0.077783017398333         -2.165522214536389         -4.175765632648468
  14 Cl   17.0000    0    35.453         -0.943804820325630         -5.267685297624713          3.668563138304004
  15 N     7.0000    0    14.007         -4.130578501334144         -5.771624234935894         -1.812880420685344
  16 C     6.0000    0    12.011         -5.704325418128557         -7.356673603737290         -3.500541918558664
  17 H     1.0000    0     1.008         -5.097876396956682         -4.156858922678586         -1.160605540765880
  18 H     1.0000    0     1.008         -2.542951546086079         -5.055418030179740         -2.746650795239852
  19 H     1.0000    0     1.008         -7.300027173146867         -8.097085310542841         -2.423012518092230
  20 H     1.0000    0     1.008         -4.542349825915584         -8.918031475997715         -4.186960370265818
  21 H     1.0000    0     1.008         -6.362416875088230         -6.193496145703143         -5.076668000555684
  22 H     1.0000    0     1.008         -3.505457096232993         -6.787790448381636         -0.280210480863977
  23 Cl   17.0000    0    35.453          6.139113607021158         -8.956253076782406          2.680319518213082
  24 Cl   17.0000    0    35.453          1.997697526308976        -10.010591758133359          9.297548954925388
  25 Pb   22.0000*   0   207.200  0.696035268002679  -10.407891559981231  2.950554134816089
  26 N     7.0000    0    14.007          4.084236747351992         -5.024709980503519          6.643836780677917
  27 C     6.0000    0    12.011          5.681794213433814         -3.289191168288643          8.148145710681394
  28 H     1.0000    0     1.008          5.098524573020617         -5.965213449273189          5.235030830030552
  29 H     1.0000    0     1.008          2.628076149514695         -4.088233518125236          5.755440620324992
  30 H     1.0000    0     1.008          7.180793013000971         -4.383420078600539          9.058086638687154
  31 H     1.0000    0     1.008          4.506089760857903         -2.354778286848602          9.563337045935278
  32 H     1.0000    0     1.008          6.476851130853966         -1.874039517283571          6.875982077325607
  33 H     1.0000    0     1.008          3.272444415289833         -6.477176163749000          7.738848037609255
  34 Cl   17.0000    0    35.453          0.697254141359058        -10.459331795072700         -2.317182185414239
  35 H     1.0000    0     1.008         -4.619282466553652        -16.190334477033822         -4.218123843940313
  36 H     1.0000    0     1.008         -1.130262208233506        -13.840012164409009         -2.202054400157354
  37 H     1.0000    0     1.008         -1.898913982384377        -18.165219229454102         -3.918983976392847
  38 C     6.0000    0    12.011         -3.355734094642413        -17.131206442399606         -2.879194296546955
  39 N     7.0000    0    14.007         -2.168587350325609        -15.223104611552108         -1.231294526257472
  40 Cl   17.0000    0    35.453         -4.850688880282979        -11.121915131052704          2.173084898524342
  41 H     1.0000    0     1.008         -3.481814732571504        -14.132883810370256         -0.178443059373916
  42 H     1.0000    0     1.008         -0.913349993951355        -15.982698928343092          0.106455832028320
  43 H     1.0000    0     1.008         -4.445166880026416        -18.455547304039094         -1.725554286310709
  44 Cl   17.0000    0    35.453          1.642211694626380        -16.345732326204569          3.198563682358048
  45 H     1.0000    0     1.008         -5.708582971108281          2.150226771208430         -7.104287450469170
  46 H     1.0000    0     1.008         -4.618180756217576          1.767757540059572         -2.624430867802361
  47 C     6.0000    0    12.011         -4.575306649691171          3.619282860183606         -6.192564510719120
  48 H     1.0000    0     1.008         -5.806975341723159          5.180340265988738         -5.628233705620083
  49 N     7.0000    0    14.007         -3.326789159449141          2.543423977619559         -3.946802634810302
  50 H     1.0000    0     1.008         -2.136584838247653          1.002892777081080         -4.390481985163002
  51 H     1.0000    0     1.008         -3.149406236436354          4.310525782710661         -7.519741851285623
  52 H     1.0000    0     1.008         -2.203273273513733          3.846414713398003         -2.968933611194607
  53 H     1.0000    0     1.008          6.845918424261054        -16.079587076955367          9.333999882322594
  54 H     1.0000    0     1.008          4.430667011400838        -14.772845234801091          5.551731922540549
  55 C     6.0000    0    12.011          7.619634664450833        -14.723047171719998          7.979893944347715
  56 H     1.0000    0     1.008          8.875153590019043        -15.702654743378901          6.661706031000277
  57 N     7.0000    0    14.007          5.542160459672238        -13.504126572187442          6.579673019526755
  58 H     1.0000    0     1.008          4.303004672697654        -12.458559999550154          7.767430145384815
  59 H     1.0000    0     1.008          8.688014010976820        -13.276289851125092          8.999051594263456
  60 H     1.0000    0     1.008          6.179119109276271        -12.142552436531306          5.268152059979791
* core charge reduced due to ECP

--------------------------------
INTERNAL COORDINATES (ANGSTROEM)
--------------------------------
 C      0   0   0   0.000000     0.000     0.000
 N      1   0   0   1.474351     0.000     0.000
 H      1   2   0   1.094057   109.379     0.000
 H      1   2   3   1.093747   109.392   240.247
 H      1   2   3   1.093743   109.882   120.181
 H      2   1   3   1.059937   113.525    58.337
 H      2   1   3   1.049786   114.205   300.796
 H      2   1   3   1.052480   114.026   179.570
 Pb     7   2   1   3.343709    98.572   177.776
 Cl     7   2   1   2.184454   154.819   162.059
 Cl     8   2   1   2.099130   162.884   182.840
 Cl     6   2   1   2.031416   162.018   197.186
 Cl     9   7   2   3.343713   152.739    19.388
 Cl     9   7   2   3.024207   113.700   129.483
 Cl     9   7   2   2.952411   118.371   242.754
 N     13   9   7   3.076005    76.068   166.908
 C     16  13   9   1.481437   119.454   195.868
 H     16  13   9   1.054191     8.659   157.483
 H     16  13   9   1.045770    96.524   315.508
 H     17  16  13   1.091638   108.854   289.930
 H     17  16  13   1.092106   108.201   170.726
 H     17  16  13   1.093521   108.670    50.617
 H     16  13   9   1.027810   108.897    66.759
 Cl    10   7   2   4.238490   150.407   273.540
 Cl    24  10   7   4.168448   102.406    43.495
 Pb    15   9   7   2.880316   136.476   279.158
 N     15   9   7   3.094329    92.118   358.616
 C     27  15   9   1.480482   142.220    43.870
 H     27  15   9   1.044781    93.376   268.880
 H     27  15   9   1.029741    31.157    26.260
 H     28  27  15   1.093789   108.810   169.807
 H     28  27  15   1.091975   108.924    49.225
 H     28  27  15   1.091334   108.308   290.337
 H     27  15   9   1.054075    84.202   164.401
 Cl    26  15   9   2.787699    98.117   320.938
 H     21  17  16   3.848588   138.761   122.863
 H     35  26  15   2.034552    88.770   226.103
 H     36  21  17   1.785929   125.185   216.379
 C     38  36  21   1.093832    35.291    87.016
 N     37  35  26   1.049512   151.248    15.268
 Cl    23  16  13   2.729905   136.961   113.792
 H     40  37  35   1.061214   102.750    42.750
 H     40  37  35   1.050677   105.403   292.409
 H     39  38  36   1.093699   109.375   119.736
 Cl    43  40  37   2.131462   162.331    59.927
 H     14   9   7   4.061511   101.172   247.174
 H     13   9   7   2.072519    73.048    60.689
 C     46  14   9   1.093962    80.161    50.030
 H     48  46  14   1.093795   109.295   208.902
 N     47  13   9   1.060735   160.539    38.397
 H     50  47  13   1.056590   103.419    18.296
 H     48  46  14   1.093799   109.429    89.000
 H     50  47  13   1.047223   107.131   266.327
 H     25  24  10   4.110562    77.313   202.857
 H     45  43  40   2.102563   149.797   329.982
 C     54  25  24   1.093803    73.608    16.597
 H     56  54  25   1.093949   109.516   201.628
 N     55  45  43   1.045273   163.212    27.581
 H     58  55  45   1.063565   107.143    54.839
 H     56  54  25   1.093903   109.256    81.821
 H     58  55  45   1.055664   106.017   305.005

---------------------------
INTERNAL COORDINATES (A.U.)
---------------------------
 C      0   0   0   0.000000     0.000     0.000
 N      1   0   0   2.786120     0.000     0.000
 H      1   2   0   2.067468   109.379     0.000
 H      1   2   3   2.066883   109.392   240.247
 H      1   2   3   2.066875   109.882   120.181
 H      2   1   3   2.002991   113.525    58.337
 H      2   1   3   1.983809   114.205   300.796
 H      2   1   3   1.988899   114.026   179.570
 Pb     7   2   1   6.318694    98.572   177.776
 Cl     7   2   1   4.128019   154.819   162.059
 Cl     8   2   1   3.966780   162.884   182.840
 Cl     6   2   1   3.838820   162.018   197.186
 Cl     9   7   2   6.318701   152.739    19.388
 Cl     9   7   2   5.714923   113.700   129.483
 Cl     9   7   2   5.579249   118.371   242.754
 N     13   9   7   5.812806    76.068   166.908
 C     16  13   9   2.799511   119.454   195.868
 H     16  13   9   1.992133     8.659   157.483
 H     16  13   9   1.976218    96.524   315.508
 H     17  16  13   2.062897   108.854   289.930
 H     17  16  13   2.063782   108.201   170.726
 H     17  16  13   2.066456   108.670    50.617
 H     16  13   9   1.942279   108.897    66.759
 Cl    10   7   2   8.009585   150.407   273.540
 Cl    24  10   7   7.877226   102.406    43.495
 Pb    15   9   7   5.443008   136.476   279.158
 N     15   9   7   5.847435    92.118   358.616
 C     27  15   9   2.797706   142.220    43.870
 H     27  15   9   1.974351    93.376   268.880
 H     27  15   9   1.945929    31.157    26.260
 H     28  27  15   2.066961   108.810   169.807
 H     28  27  15   2.063535   108.924    49.225
 H     28  27  15   2.062322   108.308   290.337
 H     27  15   9   1.991912    84.202   164.401
 Cl    26  15   9   5.267988    98.117   320.938
 H     21  17  16   7.272777   138.761   122.863
 H     35  26  15   3.844746    88.770   226.103
 H     36  21  17   3.374916   125.185   216.379
 C     38  36  21   2.067044    35.291    87.016
 N     37  35  26   1.983290   151.248    15.268
 Cl    23  16  13   5.158773   136.961   113.792
 H     40  37  35   2.005404   102.750    42.750
 H     40  37  35   1.985492   105.403   292.409
 H     39  38  36   2.066792   109.375   119.736
 Cl    43  40  37   4.027880   162.331    59.927
 H     14   9   7   7.675144   101.172   247.174
 H     13   9   7   3.916493    73.048    60.689
 C     46  14   9   2.067288    80.161    50.030
 H     48  46  14   2.066973   109.295   208.902
 N     47  13   9   2.004499   160.539    38.397
 H     50  47  13   1.996666   103.419    18.296
 H     48  46  14   2.066981   109.429    89.000
 H     50  47  13   1.978965   107.131   266.327
 H     25  24  10   7.767836    77.313   202.857
 H     45  43  40   3.973268   149.797   329.982
 C     54  25  24   2.066988    73.608    16.597
 H     56  54  25   2.067263   109.516   201.628
 N     55  45  43   1.975279   163.212    27.581
 H     58  55  45   2.009847   107.143    54.839
 H     56  54  25   2.067178   109.256    81.821
 H     58  55  45   1.994915   106.017   305.005

---------------------
BASIS SET INFORMATION
---------------------
There are 5 groups of distinct atoms

 Group   1 Type C   : 11s6p2d1f contracted to 5s3p2d1f pattern {62111/411/11/1}
 Group   2 Type N   : 11s6p2d1f contracted to 5s3p2d1f pattern {62111/411/11/1}
 Group   3 Type H   : 5s1p contracted to 3s1p pattern {311/1}
 Group   4 Type Pb  : 10s9p8d2f contracted to 6s5p3d2f pattern {421111/33111/611/11}
 Group   5 Type Cl  : 14s9p3d1f contracted to 5s5p2d1f pattern {73211/51111/21/1}

Atom   0C    basis set group =>   1
Atom   1N    basis set group =>   2
Atom   2H    basis set group =>   3
Atom   3H    basis set group =>   3
Atom   4H    basis set group =>   3
Atom   5H    basis set group =>   3
Atom   6H    basis set group =>   3
Atom   7H    basis set group =>   3
Atom   8Pb   basis set group =>   4
Atom   9Cl   basis set group =>   5
Atom  10Cl   basis set group =>   5
Atom  11Cl   basis set group =>   5
Atom  12Cl   basis set group =>   5
Atom  13Cl   basis set group =>   5
Atom  14Cl   basis set group =>   5
Atom  15N    basis set group =>   2
Atom  16C    basis set group =>   1
Atom  17H    basis set group =>   3
Atom  18H    basis set group =>   3
Atom  19H    basis set group =>   3
Atom  20H    basis set group =>   3
Atom  21H    basis set group =>   3
Atom  22H    basis set group =>   3
Atom  23Cl   basis set group =>   5
Atom  24Cl   basis set group =>   5
Atom  25Pb   basis set group =>   4
Atom  26N    basis set group =>   2
Atom  27C    basis set group =>   1
Atom  28H    basis set group =>   3
Atom  29H    basis set group =>   3
Atom  30H    basis set group =>   3
Atom  31H    basis set group =>   3
Atom  32H    basis set group =>   3
Atom  33H    basis set group =>   3
Atom  34Cl   basis set group =>   5
Atom  35H    basis set group =>   3
Atom  36H    basis set group =>   3
Atom  37H    basis set group =>   3
Atom  38C    basis set group =>   1
Atom  39N    basis set group =>   2
Atom  40Cl   basis set group =>   5
Atom  41H    basis set group =>   3
Atom  42H    basis set group =>   3
Atom  43H    basis set group =>   3
Atom  44Cl   basis set group =>   5
Atom  45H    basis set group =>   3
Atom  46H    basis set group =>   3
Atom  47C    basis set group =>   1
Atom  48H    basis set group =>   3
Atom  49N    basis set group =>   2
Atom  50H    basis set group =>   3
Atom  51H    basis set group =>   3
Atom  52H    basis set group =>   3
Atom  53H    basis set group =>   3
Atom  54H    basis set group =>   3
Atom  55C    basis set group =>   1
Atom  56H    basis set group =>   3
Atom  57N    basis set group =>   2
Atom  58H    basis set group =>   3
Atom  59H    basis set group =>   3
Atom  60H    basis set group =>   3
-------------------------------
AUXILIARY BASIS SET INFORMATION
-------------------------------
There are 5 groups of distinct atoms

 Group   1 Type C   : 12s5p4d2f1g contracted to 6s4p3d1f1g pattern {711111/2111/211/2/1}
 Group   2 Type N   : 12s5p4d2f1g contracted to 6s4p3d1f1g pattern {711111/2111/211/2/1}
 Group   3 Type H   : 5s2p1d contracted to 3s1p1d pattern {311/2/1}
 Group   4 Type Pb  : 31s12p8d6f3g contracted to 31s12p8d6f3g pattern {1111111111111111111111111111111/111111111111/11111111/111111/111}
 Group   5 Type Cl  : 14s5p5d2f1g contracted to 8s4p3d1f1g pattern {71111111/2111/311/2/1}

Atom   0C    basis set group =>   1
Atom   1N    basis set group =>   2
Atom   2H    basis set group =>   3
Atom   3H    basis set group =>   3
Atom   4H    basis set group =>   3
Atom   5H    basis set group =>   3
Atom   6H    basis set group =>   3
Atom   7H    basis set group =>   3
Atom   8Pb   basis set group =>   4
Atom   9Cl   basis set group =>   5
Atom  10Cl   basis set group =>   5
Atom  11Cl   basis set group =>   5
Atom  12Cl   basis set group =>   5
Atom  13Cl   basis set group =>   5
Atom  14Cl   basis set group =>   5
Atom  15N    basis set group =>   2
Atom  16C    basis set group =>   1
Atom  17H    basis set group =>   3
Atom  18H    basis set group =>   3
Atom  19H    basis set group =>   3
Atom  20H    basis set group =>   3
Atom  21H    basis set group =>   3
Atom  22H    basis set group =>   3
Atom  23Cl   basis set group =>   5
Atom  24Cl   basis set group =>   5
Atom  25Pb   basis set group =>   4
Atom  26N    basis set group =>   2
Atom  27C    basis set group =>   1
Atom  28H    basis set group =>   3
Atom  29H    basis set group =>   3
Atom  30H    basis set group =>   3
Atom  31H    basis set group =>   3
Atom  32H    basis set group =>   3
Atom  33H    basis set group =>   3
Atom  34Cl   basis set group =>   5
Atom  35H    basis set group =>   3
Atom  36H    basis set group =>   3
Atom  37H    basis set group =>   3
Atom  38C    basis set group =>   1
Atom  39N    basis set group =>   2
Atom  40Cl   basis set group =>   5
Atom  41H    basis set group =>   3
Atom  42H    basis set group =>   3
Atom  43H    basis set group =>   3
Atom  44Cl   basis set group =>   5
Atom  45H    basis set group =>   3
Atom  46H    basis set group =>   3
Atom  47C    basis set group =>   1
Atom  48H    basis set group =>   3
Atom  49N    basis set group =>   2
Atom  50H    basis set group =>   3
Atom  51H    basis set group =>   3
Atom  52H    basis set group =>   3
Atom  53H    basis set group =>   3
Atom  54H    basis set group =>   3
Atom  55C    basis set group =>   1
Atom  56H    basis set group =>   3
Atom  57N    basis set group =>   2
Atom  58H    basis set group =>   3
Atom  59H    basis set group =>   3
Atom  60H    basis set group =>   3

-------------------------
ECP PARAMETER INFORMATION
-------------------------

 Group 1, Type Pb ECP SD(60,MDF) (replacing 60 core electrons, lmax=5)

Atom   8Pb   ECP group =>   1
Atom  25Pb   ECP group =>   1


------------------------------------------------------------------------------
                           ORCA GTO INTEGRAL CALCULATION
                           -- RI-GTO INTEGRALS CHOSEN --
------------------------------------------------------------------------------

                         BASIS SET STATISTICS AND STARTUP INFO

Gaussian basis set:
 # of primitive gaussian shells          ...  811
 # of primitive gaussian functions       ... 1715
 # of contracted shells                  ...  451
 # of contracted basis functions         ... 1095
 Highest angular momentum                ...    3
 Maximum contraction depth               ...    7
Auxiliary gaussian basis set:
 # of primitive gaussian shells          ...  993
 # of primitive gaussian functions       ... 2615
 # of contracted shells                  ...  667
 # of contracted aux-basis functions     ... 1897
 Highest angular momentum                ...    4
 Maximum contraction depth               ...    7
Ratio of auxiliary to basis functions    ...  1.73
Integral package used                  ... LIBINT
 One Electron integrals                  
   ECP integrals                         ... done
 Ordering auxiliary basis shells         ... done
 Integral threshhold             Thresh  ...  2.500e-11
 Primitive cut-off               TCut    ...  2.500e-12
 Pre-screening matrix                    ... done
 Shell pair data                         ... 
 Ordering of the shell pairs             ... done (   0.010 sec) 48242 of 101926 pairs
 Determination of significant pairs      ... done (   0.000 sec)
 Creation of shell pair data             ... done (   0.015 sec)
 Storage of shell pair data              ... done (   0.009 sec)
 Shell pair data done in (   0.035 sec)
 Computing two index integrals           ... done
 Cholesky decomposition of the V-matrix  ... done


Timings:
 Total evaluation time                   ...   6.671 sec (  0.111 min)
 One electron matrix time                ...   4.336 sec (  0.072 min) = 65.0%
 Schwartz matrix evaluation time         ...   1.916 sec (  0.032 min) = 28.7%
 Two index repulsion integral time       ...   0.137 sec (  0.002 min) =  2.1%
 Cholesky decomposition of V             ...   0.219 sec (  0.004 min) =  3.3%
 Three index repulsion integral time     ...   0.000 sec (  0.000 min) =  0.0%

-------------------------------------------------------------------------------
                                 ORCA SCF
-------------------------------------------------------------------------------

------------
SCF SETTINGS
------------
Hamiltonian:
 Density Functional     Method          .... DFT(GTOs)
 Exchange Functional    Exchange        .... B88
   X-Alpha parameter    XAlpha          ....  0.666667
   Becke's b parameter  XBeta           ....  0.004200
 Correlation Functional Correlation     .... LYP
 LDA part of GGA corr.  LDAOpt          .... VWN-3
 Gradients option       PostSCFGGA      .... off
 Hybrid DFT is turned on
   Fraction HF Exchange ScalHFX         ....  0.530000
   Scaling of DF-GGA-X  ScalDFX         ....  0.470000
   Scaling of DF-GGA-C  ScalDFC         ....  0.730000
   Scaling of DF-LDA-C  ScalLDAC        ....  0.730000
   Perturbative correction              ....  0.270000
 RI-approximation to the Coulomb term is turned on
   Number of auxiliary basis functions  .... 1897
   RIJ-COSX (HFX calculated with COS-X)).... on


General Settings:
 Integral files         IntName         .... Pb2Cl11_6NH3CH3_-1_mp2_sp2_9.orca
 Hartree-Fock type      HFTyp           .... RHF
 Total Charge           Charge          ....   -1
 Multiplicity           Mult            ....    1
 Number of Electrons    NEL             ....  346
 Basis Dimension        Dim             .... 1095
 Nuclear Repulsion      ENuc            ....   5885.8006238405 Eh

Convergence Acceleration:
 DIIS                   CNVDIIS         .... on
   Start iteration      DIISMaxIt       ....    12
   Startup error        DIISStart       ....  0.200000
   # of expansion vecs  DIISMaxEq       ....     5
   Bias factor          DIISBfac        ....   1.050
   Max. coefficient     DIISMaxC        ....  10.000
 Newton-Raphson         CNVNR           .... off
 SOSCF                  CNVSOSCF        .... on
   Start iteration      SOSCFMaxIt      ....   150
   Startup grad/error   SOSCFStart      ....  0.003300
 Level Shifting         CNVShift        .... on
   Level shift para.    LevelShift      ....    0.2500
   Turn off err/grad.   ShiftErr        ....    0.0010
 Zerner damping         CNVZerner       .... off
 Static damping         CNVDamp         .... on
   Fraction old density DampFac         ....    0.7000
   Max. Damping (<1)    DampMax         ....    0.9800
   Min. Damping (>=0)   DampMin         ....    0.0000
   Turn off err/grad.   DampErr         ....    0.1000
 Fernandez-Rico         CNVRico         .... off

SCF Procedure:
 Maximum # iterations   MaxIter         ....   125
 SCF integral mode      SCFMode         .... Direct
   Integral package                     .... LIBINT
 Reset frequeny         DirectResetFreq ....    20
 Integral Threshold     Thresh          ....  2.500e-11 Eh
 Primitive CutOff       TCut            ....  2.500e-12 Eh

Convergence Tolerance:
 Convergence Check Mode ConvCheckMode   .... Total+1el-Energy
 Energy Change          TolE            ....  1.000e-08 Eh
 1-El. energy change                    ....  1.000e-05 Eh
 Orbital Gradient       TolG            ....  1.000e-05
 Orbital Rotation angle TolX            ....  1.000e-05
 DIIS Error             TolErr          ....  5.000e-07


Diagonalization of the overlap matrix:
Smallest eigenvalue                        ... 8.234e-04
Time for diagonalization                   ...    0.551 sec
Threshold for overlap eigenvalues          ... 1.000e-08
Number of eigenvalues below threshold      ... 0
Time for construction of square roots      ...    0.319 sec
Total time needed                          ...    0.874 sec

---------------------
INITIAL GUESS: MOREAD
---------------------
Guess MOs are being read from file: previous.gbw
Input Geometry matches current geometry (good)
Input basis set matches current basis set (good)
MOs were renormalized
MOs were reorthogonalized (Cholesky)
                      ------------------
                      INITIAL GUESS DONE (   1.1 sec)
                      ------------------
-------------------
DFT GRID GENERATION
-------------------

General Integration Accuracy     IntAcc      ...  5.010
Radial Grid Type                 RadialGrid  ... Gauss-Chebyshev
Angular Grid (max. acc.)         AngularGrid ... Lebedev-434
Angular grid pruning method      GridPruning ... 3 (G Style)
Weight generation scheme         WeightScheme... Becke
Basis function cutoff            BFCut       ...    1.0000e-11
Integration weight cutoff        WCut        ...    1.0000e-14
Grids for H and He will be reduced by one unit

# of grid points (after initial pruning)     ... 536944 (   0.5 sec)
# of grid points (after weights+screening)   ... 471578 (  13.2 sec)
nearest neighbour list constructed           ...    0.0 sec
Grid point re-assignment to atoms done       ...    0.1 sec
Grid point division into batches done        ...    3.3 sec
Reduced shell lists constructed in   31.6 sec

Total number of grid points                  ...   471578
Total number of batches                      ...     7400
Average number of points per batch           ...       63
Average number of grid points per atom       ...     7731
Average number of shells per batch           ...   107.99 (23.94%)
Average number of basis functions per batch  ...   250.37 (22.86%)
Average number of large shells per batch     ...    63.48 (58.79%)
Average number of large basis fcns per batch ...   149.90 (59.87%)
Maximum spatial batch extension              ...  31.30, 29.35, 28.31 au
Average spatial batch extension              ...   1.81,  1.76,  1.80 au

Time for grid setup =   45.392 sec

--------------------
COSX GRID GENERATION
--------------------

General Integration Accuracy     IntAcc      ...  3.340
Radial Grid Type                 RadialGrid  ... Gauss-Chebyshev
Angular Grid (max. acc.)         AngularGrid ... Lebedev-50
Angular grid pruning method      GridPruning ... 3 (G Style)
Weight generation scheme         WeightScheme... Becke
Basis function cutoff            BFCut       ...    1.0000e-11
Integration weight cutoff        WCut        ...    1.0000e-14
Grids for H and He will be reduced by one unit

# of grid points (after initial pruning)     ...  28950 (   0.0 sec)
# of grid points (after weights+screening)   ...  26072 (   0.7 sec)
nearest neighbour list constructed           ...    0.0 sec
Grid point re-assignment to atoms done       ...    0.0 sec
Grid point division into batches done        ...    0.0 sec
Reduced shell lists constructed in    2.1 sec

Total number of grid points                  ...    26072
Total number of batches                      ...      441
Average number of points per batch           ...       59
Average number of grid points per atom       ...      427
Average number of shells per batch           ...   138.34 (30.67%)
Average number of basis functions per batch  ...   327.72 (29.93%)
Average number of large shells per batch     ...    81.64 (59.01%)
Average number of large basis fcns per batch ...   195.44 (59.64%)
Maximum spatial batch extension              ...  25.98, 21.19, 23.58 au
Average spatial batch extension              ...   4.52,  4.33,  4.66 au

Overlap Fitting                  UseSFitting ... on
Constructing numerical overlap ... done (      1.2 sec)
Inverting numerical overlap    ... done (      0.1 sec)
Obtaining analytic overlap     ... done (      0.0 sec)
Final contraction and storage  ... done (      0.2 sec)


General Integration Accuracy     IntAcc      ...  3.670
Radial Grid Type                 RadialGrid  ... Gauss-Chebyshev
Angular Grid (max. acc.)         AngularGrid ... Lebedev-50
Angular grid pruning method      GridPruning ... 3 (G Style)
Weight generation scheme         WeightScheme... Becke
Basis function cutoff            BFCut       ...    1.0000e-11
Integration weight cutoff        WCut        ...    1.0000e-14
Grids for H and He will be reduced by one unit

# of grid points (after initial pruning)     ...  36590 (   0.0 sec)
# of grid points (after weights+screening)   ...  32867 (   0.9 sec)
nearest neighbour list constructed           ...    0.0 sec
Grid point re-assignment to atoms done       ...    0.0 sec
Grid point division into batches done        ...    0.0 sec
Reduced shell lists constructed in    2.7 sec

Total number of grid points                  ...    32867
Total number of batches                      ...      538
Average number of points per batch           ...       61
Average number of grid points per atom       ...      539
Average number of shells per batch           ...   134.21 (29.76%)
Average number of basis functions per batch  ...   317.14 (28.96%)
Average number of large shells per batch     ...    79.11 (58.94%)
Average number of large basis fcns per batch ...   188.78 (59.53%)
Maximum spatial batch extension              ...  27.06, 22.62, 24.46 au
Average spatial batch extension              ...   4.29,  4.02,  4.27 au

Overlap Fitting                  UseSFitting ... on
Constructing numerical overlap ... done (      1.4 sec)
Inverting numerical overlap    ... done (      0.1 sec)
Obtaining analytic overlap     ... done (      0.0 sec)
Final contraction and storage  ... done (      0.2 sec)


General Integration Accuracy     IntAcc      ...  4.010
Radial Grid Type                 RadialGrid  ... Gauss-Chebyshev
Angular Grid (max. acc.)         AngularGrid ... Lebedev-110
Angular grid pruning method      GridPruning ... 3 (G Style)
Weight generation scheme         WeightScheme... Becke
Basis function cutoff            BFCut       ...    1.0000e-11
Integration weight cutoff        WCut        ...    1.0000e-14
Grids for H and He will be reduced by one unit

# of grid points (after initial pruning)     ...  66396 (   0.0 sec)
# of grid points (after weights+screening)   ...  59885 (   1.6 sec)
nearest neighbour list constructed           ...    0.0 sec
Grid point re-assignment to atoms done       ...    0.0 sec
Grid point division into batches done        ...    0.1 sec
Reduced shell lists constructed in    4.7 sec

Total number of grid points                  ...    59885
Total number of batches                      ...      964
Average number of points per batch           ...       62
Average number of grid points per atom       ...      982
Average number of shells per batch           ...   128.26 (28.44%)
Average number of basis functions per batch  ...   302.30 (27.61%)
Average number of large shells per batch     ...    75.93 (59.20%)
Average number of large basis fcns per batch ...   181.34 (59.99%)
Maximum spatial batch extension              ...  27.66, 21.93, 25.23 au
Average spatial batch extension              ...   3.75,  3.47,  3.73 au

Overlap Fitting                  UseSFitting ... on
Constructing numerical overlap ... done (      2.5 sec)
Inverting numerical overlap    ... done (      0.1 sec)
Obtaining analytic overlap     ... done (      0.0 sec)
Final contraction and storage  ... done (      0.2 sec)

Time for X-Grid setup             =   18.994 sec
--------------
SCF ITERATIONS
--------------
ITER       Energy         Delta-E        Max-DP      RMS-DP      [F,P]     Damp
               ***  Starting incremental Fock matrix formation  ***
                      *** Initiating the SOSCF procedure ***
                      *** Re-Reading the Fockian *** 
                      *** Removing any level shift *** 
ITER      Energy       Delta-E        Grad      Rot      Max-DP    RMS-DP
  0  -6023.63285818 -6023.6328581842  0.000001  0.000001  0.000006  0.000000
               *** Restarting incremental Fock matrix formation ***
                  ***Gradient check signals convergence***
              ***Rediagonalizing the Fockian in SOSCF/NRSCF***

               *****************************************************
               *                     SUCCESS                       *
               *           SCF CONVERGED AFTER   1 CYCLES          *
               *****************************************************

Old exchange energy                            =   -221.005650144 Eh
New exchange energy                            =   -221.017921992 Eh
Exchange energy change after final integration =     -0.012271849 Eh
Total energy after final integration           =  -6023.645130030 Eh
Final COS-X integration done in                =   435.836 sec

----------------
TOTAL SCF ENERGY
----------------

Total Energy       :        -6023.64513003 Eh         -163911.71710 eV

Components:
Nuclear Repulsion  :         5885.80062384 Eh          160160.77739 eV
Electronic Energy  :       -11909.44575387 Eh         -324072.49449 eV

One Electron Energy:       -20240.12975503 Eh         -550761.93083 eV
Two Electron Energy:         8330.68400116 Eh          226689.43634 eV

Virial components:
Potential Energy   :       -11780.34300431 Eh         -320559.43007 eV
Kinetic Energy     :         5756.69787428 Eh          156647.71298 eV
Virial Ratio       :            2.04637159


DFT components:
N(Alpha)           :      173.000086352910 electrons
N(Beta)            :      173.000086352910 electrons
N(Total)           :      346.000172705821 electrons
E(X)               :     -196.129917378174 Eh       
E(C)               :       -9.607656887433 Eh       
E(XC)              :     -205.737574265607 Eh       

---------------
SCF CONVERGENCE
---------------

  Last Energy change         ...    2.7740e-09  Tolerance :   1.0000e-08
  Last MAX-Density change    ...    2.9176e-13  Tolerance :   1.0000e-07
  Last RMS-Density change    ...    5.5512e-16  Tolerance :   5.0000e-09
  Last Orbital Gradient      ...    7.5376e-07  Tolerance :   1.0000e-05
  Last Orbital Rotation      ...    2.4376e-06  Tolerance :   1.0000e-05

             **** THE GBW FILE WAS UPDATED (Pb2Cl11_6NH3CH3_-1_mp2_sp2_9.orca.gbw) ****
             **** DENSITY FILE WAS UPDATED (Pb2Cl11_6NH3CH3_-1_mp2_sp2_9.orca.scfp.tmp) ****
             **** ENERGY FILE WAS UPDATED (Pb2Cl11_6NH3CH3_-1_mp2_sp2_9.orca.en.tmp) ****
----------------
ORBITAL ENERGIES
----------------

  NO   OCC          E(Eh)            E(eV) 
   0   2.0000    -102.752613     -2796.0407 
   1   2.0000    -102.739728     -2795.6901 
   2   2.0000    -102.736370     -2795.5987 
   3   2.0000    -102.736143     -2795.5926 
   4   2.0000    -102.735128     -2795.5649 
   5   2.0000    -102.732977     -2795.5064 
   6   2.0000    -102.727864     -2795.3673 
   7   2.0000    -102.723422     -2795.2464 
   8   2.0000    -102.722493     -2795.2212 
   9   2.0000    -102.721099     -2795.1832 
  10   2.0000    -102.718531     -2795.1133 
  11   2.0000     -14.845777      -403.9741 
  12   2.0000     -14.843245      -403.9052 
  13   2.0000     -14.835402      -403.6918 
  14   2.0000     -14.834361      -403.6635 
  15   2.0000     -14.830453      -403.5571 
  16   2.0000     -14.828233      -403.4967 
  17   2.0000     -10.615453      -288.8612 
  18   2.0000     -10.612953      -288.7931 
  19   2.0000     -10.607442      -288.6432 
  20   2.0000     -10.605669      -288.5949 
  21   2.0000     -10.583810      -288.0001 
  22   2.0000     -10.578616      -287.8588 
  23   2.0000      -9.759952      -265.5818 
  24   2.0000      -9.746840      -265.2250 
  25   2.0000      -9.743704      -265.1397 
  26   2.0000      -9.743289      -265.1284 
  27   2.0000      -9.741507      -265.0799 
  28   2.0000      -9.740073      -265.0409 
  29   2.0000      -9.734780      -264.8968 
  30   2.0000      -9.730545      -264.7816 
  31   2.0000      -9.728991      -264.7393 
  32   2.0000      -9.727580      -264.7009 
  33   2.0000      -9.725671      -264.6490 
  34   2.0000      -7.396703      -201.2745 
  35   2.0000      -7.395504      -201.2419 
  36   2.0000      -7.395393      -201.2389 
  37   2.0000      -7.383605      -200.9181 
  38   2.0000      -7.382614      -200.8911 
  39   2.0000      -7.382118      -200.8776 
  40   2.0000      -7.379972      -200.8193 
  41   2.0000      -7.379772      -200.8138 
  42   2.0000      -7.379664      -200.8109 
  43   2.0000      -7.379479      -200.8058 
  44   2.0000      -7.379246      -200.7995 
  45   2.0000      -7.378788      -200.7870 
  46   2.0000      -7.378341      -200.7749 
  47   2.0000      -7.377274      -200.7458 
  48   2.0000      -7.376866      -200.7347 
  49   2.0000      -7.376438      -200.7231 
  50   2.0000      -7.376259      -200.7182 
  51   2.0000      -7.375593      -200.7001 
  52   2.0000      -7.371127      -200.5786 
  53   2.0000      -7.370731      -200.5678 
  54   2.0000      -7.370435      -200.5597 
  55   2.0000      -7.366789      -200.4605 
  56   2.0000      -7.366523      -200.4533 
  57   2.0000      -7.366337      -200.4482 
  58   2.0000      -7.365456      -200.4242 
  59   2.0000      -7.365015      -200.4122 
  60   2.0000      -7.364578      -200.4004 
  61   2.0000      -7.364012      -200.3850 
  62   2.0000      -7.363692      -200.3762 
  63   2.0000      -7.363106      -200.3603 
  64   2.0000      -7.361983      -200.3297 
  65   2.0000      -7.361585      -200.3189 
  66   2.0000      -7.361462      -200.3156 
  67   2.0000      -5.714240      -155.4924 
  68   2.0000      -5.703223      -155.1926 
  69   2.0000      -3.485337       -94.8408 
  70   2.0000      -3.484187       -94.8095 
  71   2.0000      -3.483611       -94.7939 
  72   2.0000      -3.474219       -94.5383 
  73   2.0000      -3.473225       -94.5112 
  74   2.0000      -3.472834       -94.5006 
  75   2.0000      -1.026914       -27.9437 
  76   2.0000      -1.024670       -27.8827 
  77   2.0000      -1.019130       -27.7319 
  78   2.0000      -1.017194       -27.6792 
  79   2.0000      -1.009602       -27.4727 
  80   2.0000      -1.006881       -27.3986 
  81   2.0000      -0.875028       -23.8107 
  82   2.0000      -0.873269       -23.7629 
  83   2.0000      -0.872835       -23.7510 
  84   2.0000      -0.871594       -23.7173 
  85   2.0000      -0.870544       -23.6887 
  86   2.0000      -0.865265       -23.5451 
  87   2.0000      -0.863475       -23.4963 
  88   2.0000      -0.861988       -23.4559 
  89   2.0000      -0.861094       -23.4316 
  90   2.0000      -0.860162       -23.4062 
  91   2.0000      -0.774830       -21.0842 
  92   2.0000      -0.770163       -20.9572 
  93   2.0000      -0.767953       -20.8971 
  94   2.0000      -0.763868       -20.7859 
  95   2.0000      -0.759678       -20.6719 
  96   2.0000      -0.756597       -20.5881 
  97   2.0000      -0.754509       -20.5312 
  98   2.0000      -0.749503       -20.3950 
  99   2.0000      -0.748437       -20.3660 
 100   2.0000      -0.746984       -20.3265 
 101   2.0000      -0.745091       -20.2750 
 102   2.0000      -0.741982       -20.1903 
 103   2.0000      -0.737670       -20.0730 
 104   2.0000      -0.737397       -20.0656 
 105   2.0000      -0.735658       -20.0183 
 106   2.0000      -0.727857       -19.8060 
 107   2.0000      -0.724257       -19.7080 
 108   2.0000      -0.559862       -15.2346 
 109   2.0000      -0.558705       -15.2031 
 110   2.0000      -0.552397       -15.0315 
 111   2.0000      -0.551682       -15.0120 
 112   2.0000      -0.550585       -14.9822 
 113   2.0000      -0.550018       -14.9667 
 114   2.0000      -0.547502       -14.8983 
 115   2.0000      -0.546868       -14.8810 
 116   2.0000      -0.543782       -14.7971 
 117   2.0000      -0.542170       -14.7532 
 118   2.0000      -0.534544       -14.5457 
 119   2.0000      -0.531751       -14.4697 
 120   2.0000      -0.497986       -13.5509 
 121   2.0000      -0.495828       -13.4922 
 122   2.0000      -0.489203       -13.3119 
 123   2.0000      -0.487337       -13.2611 
 124   2.0000      -0.466929       -12.7058 
 125   2.0000      -0.464627       -12.6431 
 126   2.0000      -0.450710       -12.2644 
 127   2.0000      -0.437472       -11.9042 
 128   2.0000      -0.423380       -11.5207 
 129   2.0000      -0.421305       -11.4643 
 130   2.0000      -0.420850       -11.4519 
 131   2.0000      -0.418303       -11.3826 
 132   2.0000      -0.415291       -11.3007 
 133   2.0000      -0.413860       -11.2617 
 134   2.0000      -0.413644       -11.2558 
 135   2.0000      -0.411426       -11.1955 
 136   2.0000      -0.399061       -10.8590 
 137   2.0000      -0.394728       -10.7411 
 138   2.0000      -0.393182       -10.6990 
 139   2.0000      -0.387946       -10.5565 
 140   2.0000      -0.283089        -7.7033 
 141   2.0000      -0.270672        -7.3654 
 142   2.0000      -0.265255        -7.2179 
 143   2.0000      -0.262600        -7.1457 
 144   2.0000      -0.256290        -6.9740 
 145   2.0000      -0.254973        -6.9382 
 146   2.0000      -0.253066        -6.8863 
 147   2.0000      -0.247759        -6.7419 
 148   2.0000      -0.245140        -6.6706 
 149   2.0000      -0.242793        -6.6067 
 150   2.0000      -0.241591        -6.5740 
 151   2.0000      -0.239553        -6.5186 
 152   2.0000      -0.238946        -6.5021 
 153   2.0000      -0.237337        -6.4583 
 154   2.0000      -0.234403        -6.3784 
 155   2.0000      -0.233483        -6.3534 
 156   2.0000      -0.231396        -6.2966 
 157   2.0000      -0.230132        -6.2622 
 158   2.0000      -0.228967        -6.2305 
 159   2.0000      -0.228127        -6.2077 
 160   2.0000      -0.227431        -6.1887 
 161   2.0000      -0.226000        -6.1498 
 162   2.0000      -0.225245        -6.1292 
 163   2.0000      -0.223808        -6.0901 
 164   2.0000      -0.223017        -6.0686 
 165   2.0000      -0.222207        -6.0466 
 166   2.0000      -0.221994        -6.0408 
 167   2.0000      -0.220367        -5.9965 
 168   2.0000      -0.218801        -5.9539 
 169   2.0000      -0.215563        -5.8658 
 170   2.0000      -0.214843        -5.8462 
 171   2.0000      -0.195258        -5.3132 
 172   2.0000      -0.185338        -5.0433 
 173   0.0000       0.092643         2.5210 
 174   0.0000       0.107605         2.9281 
 175   0.0000       0.113967         3.1012 
 176   0.0000       0.117611         3.2004 
 177   0.0000       0.125115         3.4046 
 178   0.0000       0.125550         3.4164 
 179   0.0000       0.128769         3.5040 
 180   0.0000       0.134580         3.6621 
 181   0.0000       0.137140         3.7318 
 182   0.0000       0.138093         3.7577 
 183   0.0000       0.164652         4.4804 
 184   0.0000       0.168647         4.5891 
 185   0.0000       0.179757         4.8914 
 186   0.0000       0.182620         4.9693 
 187   0.0000       0.184846         5.0299 
 188   0.0000       0.187238         5.0950 
 189   0.0000       0.195633         5.3234 
 190   0.0000       0.196890         5.3576 
 191   0.0000       0.197853         5.3839 
 192   0.0000       0.199320         5.4238 
 193   0.0000       0.202621         5.5136 
 194   0.0000       0.204595         5.5673 
 195   0.0000       0.207498         5.6463 
 196   0.0000       0.209098         5.6898 
 197   0.0000       0.212542         5.7836 
 198   0.0000       0.221247         6.0204 
 199   0.0000       0.230581         6.2744 
 200   0.0000       0.233607         6.3568 
 201   0.0000       0.237293         6.4571 
 202   0.0000       0.239083         6.5058 
 203   0.0000       0.245089         6.6692 
 204   0.0000       0.248048         6.7497 
 205   0.0000       0.251577         6.8458 
 206   0.0000       0.252731         6.8772 
 207   0.0000       0.257446         7.0055 
 208   0.0000       0.259526         7.0621 
 209   0.0000       0.266631         7.2554 
 210   0.0000       0.269482         7.3330 
 211   0.0000       0.270765         7.3679 
 212   0.0000       0.272276         7.4090 
 213   0.0000       0.274517         7.4700 
 214   0.0000       0.280580         7.6350 
 215   0.0000       0.282936         7.6991 
 216   0.0000       0.285677         7.7737 
 217   0.0000       0.288089         7.8393 
 218   0.0000       0.289180         7.8690 
 219   0.0000       0.294735         8.0202 
 220   0.0000       0.298684         8.1276 
 221   0.0000       0.299969         8.1626 
 222   0.0000       0.306470         8.3395 
 223   0.0000       0.311566         8.4781 
 224   0.0000       0.314570         8.5599 
 225   0.0000       0.323014         8.7897 
 226   0.0000       0.326474         8.8838 
 227   0.0000       0.338198         9.2028 
 228   0.0000       0.342299         9.3144 
 229   0.0000       0.346261         9.4222 
 230   0.0000       0.348286         9.4774 
 231   0.0000       0.349818         9.5190 
 232   0.0000       0.350410         9.5351 
 233   0.0000       0.358749         9.7620 
 234   0.0000       0.359692         9.7877 
 235   0.0000       0.362420         9.8620 
 236   0.0000       0.364007         9.9051 
 237   0.0000       0.366559         9.9746 
 238   0.0000       0.367369         9.9966 
 239   0.0000       0.368685        10.0324 
 240   0.0000       0.370587        10.0842 
 241   0.0000       0.371979        10.1221 
 242   0.0000       0.375810        10.2263 
 243   0.0000       0.380068        10.3422 
 244   0.0000       0.385513        10.4903 
 245   0.0000       0.387744        10.5510 
 246   0.0000       0.390500        10.6260 
 247   0.0000       0.397340        10.8122 
 248   0.0000       0.399109        10.8603 
 249   0.0000       0.402432        10.9507 
 250   0.0000       0.404655        11.0112 
 251   0.0000       0.408887        11.1264 
 252   0.0000       0.418321        11.3831 
 253   0.0000       0.423000        11.5104 
 254   0.0000       0.425446        11.5770 
 255   0.0000       0.427973        11.6457 
 256   0.0000       0.434805        11.8316 
 257   0.0000       0.437065        11.8932 
 258   0.0000       0.440258        11.9800 
 259   0.0000       0.451920        12.2974 
 260   0.0000       0.461445        12.5566 
 261   0.0000       0.462293        12.5796 
 262   0.0000       0.468245        12.7416 
 263   0.0000       0.470993        12.8164 
 264   0.0000       0.471750        12.8370 
 265   0.0000       0.477053        12.9813 
 266   0.0000       0.483257        13.1501 
 267   0.0000       0.484164        13.1748 
 268   0.0000       0.492160        13.3924 
 269   0.0000       0.493788        13.4366 
 270   0.0000       0.497568        13.5395 
 271   0.0000       0.498861        13.5747 
 272   0.0000       0.504671        13.7328 
 273   0.0000       0.508522        13.8376 
 274   0.0000       0.512192        13.9374 
 275   0.0000       0.516500        14.0547 
 276   0.0000       0.520836        14.1727 
 277   0.0000       0.528148        14.3716 
 278   0.0000       0.529640        14.4122 
 279   0.0000       0.533766        14.5245 
 280   0.0000       0.536109        14.5883 
 281   0.0000       0.537851        14.6357 
 282   0.0000       0.543071        14.7777 
 283   0.0000       0.548315        14.9204 
 284   0.0000       0.551168        14.9980 
 285   0.0000       0.555072        15.1043 
 286   0.0000       0.557141        15.1606 
 287   0.0000       0.559389        15.2218 
 288   0.0000       0.561917        15.2905 
 289   0.0000       0.563196        15.3253 
 290   0.0000       0.564500        15.3608 
 291   0.0000       0.566751        15.4221 
 292   0.0000       0.567301        15.4371 
 293   0.0000       0.569022        15.4839 
 294   0.0000       0.571736        15.5577 
 295   0.0000       0.572394        15.5756 
 296   0.0000       0.575350        15.6561 
 297   0.0000       0.579070        15.7573 
 298   0.0000       0.580535        15.7972 
 299   0.0000       0.581276        15.8173 
 300   0.0000       0.583891        15.8885 
 301   0.0000       0.586980        15.9725 
 302   0.0000       0.587980        15.9998 
 303   0.0000       0.589371        16.0376 
 304   0.0000       0.590731        16.0746 
 305   0.0000       0.594469        16.1763 
 306   0.0000       0.598383        16.2828 
 307   0.0000       0.601286        16.3618 
 308   0.0000       0.603653        16.4262 
 309   0.0000       0.604683        16.4543 
 310   0.0000       0.607882        16.5413 
 311   0.0000       0.609008        16.5719 
 312   0.0000       0.610772        16.6200 
 313   0.0000       0.611456        16.6386 
 314   0.0000       0.615290        16.7429 
 315   0.0000       0.616963        16.7884 
 316   0.0000       0.623178        16.9575 
 317   0.0000       0.624342        16.9892 
 318   0.0000       0.625240        17.0136 
 319   0.0000       0.627492        17.0749 
 320   0.0000       0.630895        17.1675 
 321   0.0000       0.633829        17.2474 
 322   0.0000       0.634922        17.2771 
 323   0.0000       0.637920        17.3587 
 324   0.0000       0.640487        17.4285 
 325   0.0000       0.641403        17.4535 
 326   0.0000       0.643446        17.5091 
 327   0.0000       0.645957        17.5774 
 328   0.0000       0.650146        17.6914 
 329   0.0000       0.651461        17.7272 
 330   0.0000       0.655019        17.8240 
 331   0.0000       0.656016        17.8511 
 332   0.0000       0.658795        17.9267 
 333   0.0000       0.661112        17.9898 
 334   0.0000       0.662751        18.0344 
 335   0.0000       0.664624        18.0853 
 336   0.0000       0.668794        18.1988 
 337   0.0000       0.671062        18.2605 
 338   0.0000       0.673853        18.3365 
 339   0.0000       0.678721        18.4689 
 340   0.0000       0.679914        18.5014 
 341   0.0000       0.681656        18.5488 
 342   0.0000       0.683660        18.6033 
 343   0.0000       0.686553        18.6820 
 344   0.0000       0.691078        18.8052 
 345   0.0000       0.692791        18.8518 
 346   0.0000       0.694879        18.9086 
 347   0.0000       0.695908        18.9366 
 348   0.0000       0.700297        19.0560 
 349   0.0000       0.704061        19.1585 
 350   0.0000       0.705527        19.1984 
 351   0.0000       0.707259        19.2455 
 352   0.0000       0.715321        19.4649 
 353   0.0000       0.717129        19.5141 
 354   0.0000       0.721035        19.6204 
 355   0.0000       0.726340        19.7647 
 356   0.0000       0.727370        19.7927 
 357   0.0000       0.728446        19.8220 
 358   0.0000       0.732910        19.9435 
 359   0.0000       0.735599        20.0167 
 360   0.0000       0.740322        20.1452 
 361   0.0000       0.742977        20.2174 
 362   0.0000       0.747777        20.3480 
 363   0.0000       0.751444        20.4478 
 364   0.0000       0.755694        20.5635 
 365   0.0000       0.758346        20.6357 
 366   0.0000       0.764769        20.8104 
 367   0.0000       0.767879        20.8951 
 368   0.0000       0.772142        21.0111 
 369   0.0000       0.775848        21.1119 
 370   0.0000       0.778240        21.1770 
 371   0.0000       0.782990        21.3062 
 372   0.0000       0.787161        21.4197 
 373   0.0000       0.789042        21.4709 
 374   0.0000       0.798515        21.7287 
 375   0.0000       0.799076        21.7440 
 376   0.0000       0.801067        21.7981 
 377   0.0000       0.802859        21.8469 
 378   0.0000       0.804027        21.8787 
 379   0.0000       0.807427        21.9712 
 380   0.0000       0.808119        21.9900 
 381   0.0000       0.809188        22.0191 
 382   0.0000       0.816965        22.2307 
 383   0.0000       0.817425        22.2433 
 384   0.0000       0.820234        22.3197 
 385   0.0000       0.824873        22.4459 
 386   0.0000       0.826783        22.4979 
 387   0.0000       0.829793        22.5798 
 388   0.0000       0.830930        22.6108 
 389   0.0000       0.835284        22.7292 
 390   0.0000       0.836805        22.7706 
 391   0.0000       0.839379        22.8407 
 392   0.0000       0.845771        23.0146 
 393   0.0000       0.848451        23.0875 
 394   0.0000       0.849294        23.1105 
 395   0.0000       0.850774        23.1507 
 396   0.0000       0.859199        23.3800 
 397   0.0000       0.867895        23.6166 
 398   0.0000       0.868650        23.6372 
 399   0.0000       0.873492        23.7689 
 400   0.0000       0.879436        23.9307 
 401   0.0000       0.884230        24.0611 
 402   0.0000       0.888983        24.1905 
 403   0.0000       0.890814        24.2403 
 404   0.0000       0.892604        24.2890 
 405   0.0000       0.895118        24.3574 
 406   0.0000       0.899796        24.4847 
 407   0.0000       0.903597        24.5881 
 408   0.0000       0.906940        24.6791 
 409   0.0000       0.909046        24.7364 
 410   0.0000       0.918495        24.9935 
 411   0.0000       0.919465        25.0199 
 412   0.0000       0.924887        25.1675 
 413   0.0000       0.928076        25.2542 
 414   0.0000       0.933690        25.4070 
 415   0.0000       0.940423        25.5902 
 416   0.0000       0.942856        25.6564 
 417   0.0000       0.949329        25.8326 
 418   0.0000       0.954266        25.9669 
 419   0.0000       0.961172        26.1548 
 420   0.0000       0.962178        26.1822 
 421   0.0000       0.964832        26.2544 
 422   0.0000       0.971161        26.4266 
 423   0.0000       0.974148        26.5079 
 424   0.0000       0.981283        26.7021 
 425   0.0000       0.982750        26.7420 
 426   0.0000       0.985510        26.8171 
 427   0.0000       0.995559        27.0905 
 428   0.0000       0.998753        27.1774 
 429   0.0000       1.003094        27.2956 
 430   0.0000       1.009255        27.4632 
 431   0.0000       1.011059        27.5123 
 432   0.0000       1.014446        27.6045 
 433   0.0000       1.019766        27.7492 
 434   0.0000       1.022457        27.8225 
 435   0.0000       1.024135        27.8681 
 436   0.0000       1.027692        27.9649 
 437   0.0000       1.033426        28.1210 
 438   0.0000       1.034183        28.1416 
 439   0.0000       1.041504        28.3408 
 440   0.0000       1.046108        28.4661 
 441   0.0000       1.047998        28.5175 
 442   0.0000       1.057484        28.7756 
 443   0.0000       1.059297        28.8249 
 444   0.0000       1.062686        28.9172 
 445   0.0000       1.068477        29.0747 
 446   0.0000       1.078806        29.3558 
 447   0.0000       1.086512        29.5655 
 448   0.0000       1.090945        29.6861 
 449   0.0000       1.094053        29.7707 
 450   0.0000       1.117162        30.3995 
 451   0.0000       1.124183        30.5906 
 452   0.0000       1.145419        31.1684 
 453   0.0000       1.154650        31.4196 
 454   0.0000       1.158165        31.5153 
 455   0.0000       1.163634        31.6641 
 456   0.0000       1.168353        31.7925 
 457   0.0000       1.175236        31.9798 
 458   0.0000       1.185570        32.2610 
 459   0.0000       1.199683        32.6450 
 460   0.0000       1.202433        32.7199 
 461   0.0000       1.207079        32.8463 
 462   0.0000       1.215232        33.0682 
 463   0.0000       1.221577        33.2408 
 464   0.0000       1.245868        33.9018 
 465   0.0000       1.253445        34.1080 
 466   0.0000       1.277748        34.7693 
 467   0.0000       1.281706        34.8770 
 468   0.0000       1.287685        35.0397 
 469   0.0000       1.290790        35.1242 
 470   0.0000       1.294035        35.2125 
 471   0.0000       1.296376        35.2762 
 472   0.0000       1.305168        35.5154 
 473   0.0000       1.308750        35.6129 
 474   0.0000       1.311668        35.6923 
 475   0.0000       1.316383        35.8206 
 476   0.0000       1.325552        36.0701 
 477   0.0000       1.330099        36.1938 
 478   0.0000       1.334126        36.3034 
 479   0.0000       1.343078        36.5470 
 480   0.0000       1.344106        36.5750 
 481   0.0000       1.352046        36.7910 
 482   0.0000       1.356925        36.9238 
 483   0.0000       1.367633        37.2152 
 484   0.0000       1.370171        37.2842 
 485   0.0000       1.378225        37.5034 
 486   0.0000       1.392106        37.8811 
 487   0.0000       1.407093        38.2890 
 488   0.0000       1.417142        38.5624 
 489   0.0000       1.428131        38.8614 
 490   0.0000       1.446909        39.3724 
 491   0.0000       1.451204        39.4893 
 492   0.0000       1.456327        39.6287 
 493   0.0000       1.474056        40.1111 
 494   0.0000       1.493998        40.6538 
 495   0.0000       1.503325        40.9076 
 496   0.0000       1.517507        41.2935 
 497   0.0000       1.523145        41.4469 
 498   0.0000       1.526238        41.5311 
 499   0.0000       1.533652        41.7328 
 500   0.0000       1.542859        41.9833 
 501   0.0000       1.553954        42.2852 
 502   0.0000       1.559163        42.4270 
 503   0.0000       1.566298        42.6211 
 504   0.0000       1.597243        43.4632 
 505   0.0000       1.597846        43.4796 
 506   0.0000       1.601955        43.5914 
 507   0.0000       1.604897        43.6715 
 508   0.0000       1.608725        43.7756 
 509   0.0000       1.618602        44.0444 
 510   0.0000       1.641960        44.6800 
 511   0.0000       1.648790        44.8659 
 512   0.0000       1.656487        45.0753 
 513   0.0000       1.659744        45.1639 
 514   0.0000       1.664493        45.2931 
 515   0.0000       1.666301        45.3424 
 516   0.0000       1.685467        45.8639 
 517   0.0000       1.686023        45.8790 
 518   0.0000       1.687896        45.9300 
 519   0.0000       1.691181        46.0194 
 520   0.0000       1.692015        46.0421 
 521   0.0000       1.692921        46.0667 
 522   0.0000       1.701260        46.2936 
 523   0.0000       1.704356        46.3779 
 524   0.0000       1.706151        46.4267 
 525   0.0000       1.708022        46.4776 
 526   0.0000       1.710008        46.5317 
 527   0.0000       1.714205        46.6459 
 528   0.0000       1.718188        46.7543 
 529   0.0000       1.721887        46.8549 
 530   0.0000       1.726125        46.9703 
 531   0.0000       1.727024        46.9947 
 532   0.0000       1.728076        47.0233 
 533   0.0000       1.732903        47.1547 
 534   0.0000       1.736288        47.2468 
 535   0.0000       1.738635        47.3107 
 536   0.0000       1.742595        47.4184 
 537   0.0000       1.747541        47.5530 
 538   0.0000       1.749866        47.6163 
 539   0.0000       1.756214        47.7890 
 540   0.0000       1.783983        48.5446 
 541   0.0000       1.791180        48.7405 
 542   0.0000       1.852183        50.4005 
 543   0.0000       1.857797        50.5532 
 544   0.0000       1.865319        50.7579 
 545   0.0000       1.869101        50.8608 
 546   0.0000       1.873316        50.9755 
 547   0.0000       1.878432        51.1147 
 548   0.0000       1.891589        51.4727 
 549   0.0000       1.892609        51.5005 
 550   0.0000       1.893805        51.5331 
 551   0.0000       1.897009        51.6202 
 552   0.0000       1.904608        51.8270 
 553   0.0000       1.912814        52.0503 
 554   0.0000       1.926593        52.4253 
 555   0.0000       1.930665        52.5361 
 556   0.0000       1.936882        52.7052 
 557   0.0000       1.940023        52.7907 
 558   0.0000       1.944035        52.8999 
 559   0.0000       1.957396        53.2635 
 560   0.0000       1.989254        54.1304 
 561   0.0000       1.994026        54.2602 
 562   0.0000       1.994236        54.2659 
 563   0.0000       1.995160        54.2911 
 564   0.0000       1.997816        54.3633 
 565   0.0000       1.999723        54.4152 
 566   0.0000       2.002385        54.4877 
 567   0.0000       2.005873        54.5826 
 568   0.0000       2.011139        54.7259 
 569   0.0000       2.016636        54.8755 
 570   0.0000       2.020075        54.9690 
 571   0.0000       2.024905        55.1005 
 572   0.0000       2.026968        55.1566 
 573   0.0000       2.029278        55.2195 
 574   0.0000       2.029836        55.2347 
 575   0.0000       2.033131        55.3243 
 576   0.0000       2.033635        55.3380 
 577   0.0000       2.036344        55.4117 
 578   0.0000       2.039695        55.5029 
 579   0.0000       2.041530        55.5528 
 580   0.0000       2.045526        55.6616 
 581   0.0000       2.049951        55.7820 
 582   0.0000       2.052245        55.8444 
 583   0.0000       2.058047        56.0023 
 584   0.0000       2.062996        56.1370 
 585   0.0000       2.066823        56.2411 
 586   0.0000       2.067934        56.2714 
 587   0.0000       2.070324        56.3364 
 588   0.0000       2.071699        56.3738 
 589   0.0000       2.072739        56.4021 
 590   0.0000       2.076379        56.5012 
 591   0.0000       2.076973        56.5173 
 592   0.0000       2.080371        56.6098 
 593   0.0000       2.081997        56.6540 
 594   0.0000       2.084575        56.7242 
 595   0.0000       2.088544        56.8322 
 596   0.0000       2.090975        56.8983 
 597   0.0000       2.091856        56.9223 
 598   0.0000       2.093113        56.9565 
 599   0.0000       2.096750        57.0555 
 600   0.0000       2.099557        57.1318 
 601   0.0000       2.103558        57.2407 
 602   0.0000       2.105999        57.3071 
 603   0.0000       2.109559        57.4040 
 604   0.0000       2.115616        57.5688 
 605   0.0000       2.124583        57.8129 
 606   0.0000       2.125713        57.8436 
 607   0.0000       2.131928        58.0127 
 608   0.0000       2.134914        58.0940 
 609   0.0000       2.139329        58.2141 
 610   0.0000       2.143881        58.3380 
 611   0.0000       2.146015        58.3960 
 612   0.0000       2.147874        58.4466 
 613   0.0000       2.153678        58.6046 
 614   0.0000       2.155740        58.6607 
 615   0.0000       2.160991        58.8036 
 616   0.0000       2.163905        58.8828 
 617   0.0000       2.165446        58.9248 
 618   0.0000       2.170799        59.0704 
 619   0.0000       2.173984        59.1571 
 620   0.0000       2.176476        59.2249 
 621   0.0000       2.180083        59.3231 
 622   0.0000       2.181129        59.3515 
 623   0.0000       2.186236        59.4905 
 624   0.0000       2.186625        59.5011 
 625   0.0000       2.189755        59.5863 
 626   0.0000       2.196631        59.7734 
 627   0.0000       2.198466        59.8233 
 628   0.0000       2.200306        59.8734 
 629   0.0000       2.206611        60.0450 
 630   0.0000       2.211249        60.1711 
 631   0.0000       2.211859        60.1877 
 632   0.0000       2.213108        60.2217 
 633   0.0000       2.218978        60.3815 
 634   0.0000       2.219792        60.4036 
 635   0.0000       2.224926        60.5433 
 636   0.0000       2.232792        60.7574 
 637   0.0000       2.236762        60.8654 
 638   0.0000       2.244362        61.0722 
 639   0.0000       2.249148        61.2024 
 640   0.0000       2.251290        61.2607 
 641   0.0000       2.256849        61.4120 
 642   0.0000       2.258779        61.4645 
 643   0.0000       2.263691        61.5982 
 644   0.0000       2.265876        61.6576 
 645   0.0000       2.271818        61.8193 
 646   0.0000       2.273654        61.8693 
 647   0.0000       2.277562        61.9756 
 648   0.0000       2.282841        62.1193 
 649   0.0000       2.283077        62.1257 
 650   0.0000       2.285254        62.1849 
 651   0.0000       2.287564        62.2478 
 652   0.0000       2.289019        62.2874 
 653   0.0000       2.293775        62.4168 
 654   0.0000       2.297947        62.5303 
 655   0.0000       2.298907        62.5564 
 656   0.0000       2.309651        62.8488 
 657   0.0000       2.311386        62.8960 
 658   0.0000       2.314354        62.9768 
 659   0.0000       2.315940        63.0199 
 660   0.0000       2.317115        63.0519 
 661   0.0000       2.318806        63.0979 
 662   0.0000       2.321117        63.1608 
 663   0.0000       2.322469        63.1976 
 664   0.0000       2.327835        63.3436 
 665   0.0000       2.332836        63.4797 
 666   0.0000       2.335784        63.5599 
 667   0.0000       2.337353        63.6026 
 668   0.0000       2.341084        63.7041 
 669   0.0000       2.342591        63.7451 
 670   0.0000       2.345993        63.8377 
 671   0.0000       2.349711        63.9389 
 672   0.0000       2.351124        63.9773 
 673   0.0000       2.353583        64.0443 
 674   0.0000       2.354230        64.0619 
 675   0.0000       2.356506        64.1238 
 676   0.0000       2.359847        64.2147 
 677   0.0000       2.360593        64.2350 
 678   0.0000       2.362630        64.2904 
 679   0.0000       2.363803        64.3223 
 680   0.0000       2.363989        64.3274 
 681   0.0000       2.365187        64.3600 
 682   0.0000       2.368257        64.4436 
 683   0.0000       2.368360        64.4463 
 684   0.0000       2.369570        64.4793 
 685   0.0000       2.370604        64.5074 
 686   0.0000       2.371116        64.5213 
 687   0.0000       2.372486        64.5586 
 688   0.0000       2.373059        64.5742 
 689   0.0000       2.375083        64.6293 
 690   0.0000       2.378507        64.7225 
 691   0.0000       2.379288        64.7437 
 692   0.0000       2.380916        64.7880 
 693   0.0000       2.382486        64.8307 
 694   0.0000       2.383665        64.8628 
 695   0.0000       2.385124        64.9025 
 696   0.0000       2.386026        64.9271 
 697   0.0000       2.386418        64.9377 
 698   0.0000       2.388400        64.9917 
 699   0.0000       2.389337        65.0172 
 700   0.0000       2.392721        65.1092 
 701   0.0000       2.394413        65.1553 
 702   0.0000       2.394862        65.1675 
 703   0.0000       2.395843        65.1942 
 704   0.0000       2.399491        65.2935 
 705   0.0000       2.402016        65.3622 
 706   0.0000       2.404289        65.4240 
 707   0.0000       2.404891        65.4404 
 708   0.0000       2.410045        65.5806 
 709   0.0000       2.413420        65.6725 
 710   0.0000       2.418043        65.7983 
 711   0.0000       2.419666        65.8425 
 712   0.0000       2.424452        65.9727 
 713   0.0000       2.426239        66.0213 
 714   0.0000       2.427574        66.0577 
 715   0.0000       2.433902        66.2298 
 716   0.0000       2.435972        66.2862 
 717   0.0000       2.437703        66.3333 
 718   0.0000       2.439190        66.3737 
 719   0.0000       2.441879        66.4469 
 720   0.0000       2.443719        66.4970 
 721   0.0000       2.447912        66.6111 
 722   0.0000       2.451514        66.7091 
 723   0.0000       2.452449        66.7345 
 724   0.0000       2.457681        66.8769 
 725   0.0000       2.458648        66.9032 
 726   0.0000       2.463900        67.0461 
 727   0.0000       2.468335        67.1668 
 728   0.0000       2.470795        67.2337 
 729   0.0000       2.472236        67.2730 
 730   0.0000       2.474431        67.3327 
 731   0.0000       2.481591        67.5275 
 732   0.0000       2.483581        67.5817 
 733   0.0000       2.485162        67.6247 
 734   0.0000       2.487791        67.6962 
 735   0.0000       2.489303        67.7374 
 736   0.0000       2.493426        67.8496 
 737   0.0000       2.495746        67.9127 
 738   0.0000       2.497683        67.9654 
 739   0.0000       2.499711        68.0206 
 740   0.0000       2.502044        68.0841 
 741   0.0000       2.504855        68.1606 
 742   0.0000       2.509129        68.2769 
 743   0.0000       2.510225        68.3067 
 744   0.0000       2.513054        68.3837 
 745   0.0000       2.513918        68.4072 
 746   0.0000       2.518300        68.5264 
 747   0.0000       2.524934        68.7069 
 748   0.0000       2.526198        68.7413 
 749   0.0000       2.527894        68.7875 
 750   0.0000       2.534781        68.9749 
 751   0.0000       2.537886        69.0594 
[...]
      f+3     :     0.003324
      f-3     :     0.002312
 48 H s       :     0.821373  s :     0.821373
      pz      :     0.012260  p :     0.061053
      px      :     0.021551
      py      :     0.027242
 49 N s       :     3.009071  s :     3.009071
      pz      :     1.241281  p :     3.767636
      px      :     1.263740
      py      :     1.262615
      dz2     :     0.031287  d :     0.154432
      dxz     :     0.041495
      dyz     :     0.034549
      dx2y2   :     0.008704
      dxy     :     0.038398
      f0      :     0.002211  f :     0.009630
      f+1     :     0.001243
      f-1     :     0.001246
      f+2     :     0.001522
      f-2     :     0.001523
      f+3     :     0.001150
      f-3     :     0.000736
 50 H s       :     0.720055  s :     0.720055
      pz      :     0.019133  p :     0.141596
      px      :     0.047936
      py      :     0.074528
 51 H s       :     0.820547  s :     0.820547
      pz      :     0.021559  p :     0.061145
      px      :     0.024269
      py      :     0.015318
 52 H s       :     0.723413  s :     0.723413
      pz      :     0.038794  p :     0.133207
      px      :     0.046688
      py      :     0.047724
 53 H s       :     0.820141  s :     0.820141
      pz      :     0.023391  p :     0.061113
      px      :     0.014271
      py      :     0.023451
 54 H s       :     0.722706  s :     0.722706
      pz      :     0.040797  p :     0.130658
      px      :     0.044828
      py      :     0.045034
 55 C s       :     2.850821  s :     2.850821
      pz      :     1.046185  p :     3.092165
      px      :     0.984925
      py      :     1.061056
      dz2     :     0.030520  d :     0.317287
      dxz     :     0.083780
      dyz     :     0.078264
      dx2y2   :     0.043595
      dxy     :     0.081128
      f0      :     0.004802  f :     0.038264
      f+1     :     0.007361
      f-1     :     0.003128
      f+2     :     0.004476
      f-2     :     0.006418
      f+3     :     0.007092
      f-3     :     0.004986
 56 H s       :     0.821808  s :     0.821808
      pz      :     0.022200  p :     0.061121
      px      :     0.020743
      py      :     0.018178
 57 N s       :     3.008826  s :     3.008826
      pz      :     1.261276  p :     3.765698
      px      :     1.248965
      py      :     1.255458
      dz2     :     0.014559  d :     0.154394
      dxz     :     0.038354
      dyz     :     0.040755
      dx2y2   :     0.021809
      dxy     :     0.038917
      f0      :     0.001286  f :     0.009606
      f+1     :     0.001655
      f-1     :     0.000901
      f+2     :     0.001059
      f-2     :     0.001756
      f+3     :     0.001865
      f-3     :     0.001083
 58 H s       :     0.718581  s :     0.718581
      pz      :     0.046170  p :     0.149802
      px      :     0.054141
      py      :     0.049491
 59 H s       :     0.820226  s :     0.820226
      pz      :     0.018485  p :     0.061119
      px      :     0.017897
      py      :     0.024737
 60 H s       :     0.719450  s :     0.719450
      pz      :     0.048191  p :     0.123771
      px      :     0.021936
      py      :     0.053644


                      *****************************
                      * MAYER POPULATION ANALYSIS *
                      *****************************

  NA   - Mulliken gross atomic population
  ZA   - Total nuclear charge
  QA   - Mulliken gross atomic charge
  VA   - Mayer's total valence
  BVA  - Mayer's bonded valence
  FA   - Mayer's free valence

  ATOM       NA         ZA         QA         VA         BVA        FA
  0 C      6.2498     6.0000    -0.2498     3.8901     3.8901    -0.0000
  1 N      7.2879     7.0000    -0.2879     3.2245     3.2245     0.0000
  2 H      0.8618     1.0000     0.1382     0.9657     0.9657    -0.0000
  3 H      0.8575     1.0000     0.1425     0.9647     0.9647    -0.0000
  4 H      0.8605     1.0000     0.1395     0.9630     0.9630     0.0000
  5 H      0.7290     1.0000     0.2710     1.0201     1.0201     0.0000
  6 H      0.7370     1.0000     0.2630     1.0101     1.0101    -0.0000
  7 H      0.7198     1.0000     0.2802     0.9907     0.9907    -0.0000
  8 Pb    20.9966    22.0000     1.0034     1.7238     1.7238    -0.0000
  9 Cl    17.6140    17.0000    -0.6140     0.6904     0.6904    -0.0000
 10 Cl    17.7121    17.0000    -0.7121     0.5202     0.5202     0.0000
 11 Cl    17.6750    17.0000    -0.6750     0.5912     0.5912     0.0000
 12 Cl    17.6928    17.0000    -0.6928     0.5597     0.5597    -0.0000
 13 Cl    17.6539    17.0000    -0.6539     0.6274     0.6274     0.0000
 14 Cl    17.6013    17.0000    -0.6013     0.7032     0.7032    -0.0000
 15 N      7.2769     7.0000    -0.2769     3.3586     3.3586     0.0000
 16 C      6.2437     6.0000    -0.2437     3.8540     3.8540    -0.0000
 17 H      0.7225     1.0000     0.2775     1.0045     1.0045     0.0000
 18 H      0.7028     1.0000     0.2972     0.9592     0.9592    -0.0000
 19 H      0.8489     1.0000     0.1511     0.9814     0.9814     0.0000
 20 H      0.8635     1.0000     0.1365     0.9978     0.9978     0.0000
 21 H      0.8795     1.0000     0.1205     0.9714     0.9714     0.0000
 22 H      0.7042     1.0000     0.2958     0.9518     0.9518     0.0000
 23 Cl    17.6501    17.0000    -0.6501     0.6317     0.6317     0.0000
 24 Cl    17.6997    17.0000    -0.6997     0.5479     0.5479    -0.0000
 25 Pb    21.0112    22.0000     0.9888     1.7388     1.7388     0.0000
 26 N      7.2789     7.0000    -0.2789     3.3718     3.3718    -0.0000
 27 C      6.2365     6.0000    -0.2365     3.8399     3.8399    -0.0000
 28 H      0.7077     1.0000     0.2923     0.9707     0.9707     0.0000
 29 H      0.6979     1.0000     0.3021     0.9397     0.9397    -0.0000
 30 H      0.8821     1.0000     0.1179     0.9692     0.9692    -0.0000
 31 H      0.8471     1.0000     0.1529     0.9819     0.9819     0.0000
 32 H      0.8630     1.0000     0.1370     1.0037     1.0037    -0.0000
 33 H      0.7245     1.0000     0.2755     0.9969     0.9969    -0.0000
 34 Cl    17.6108    17.0000    -0.6108     0.6914     0.6914     0.0000
 35 H      0.8636     1.0000     0.1364     0.9648     0.9648     0.0000
 36 H      0.7289     1.0000     0.2711     1.0050     1.0050     0.0000
 37 H      0.8592     1.0000     0.1408     0.9631     0.9631     0.0000
 38 C      6.2501     6.0000    -0.2501     3.8873     3.8873     0.0000
 39 N      7.2851     7.0000    -0.2851     3.2342     3.2342     0.0000
 40 Cl    17.6695    17.0000    -0.6695     0.5967     0.5967     0.0000
 41 H      0.7314     1.0000     0.2686     1.0144     1.0144     0.0000
 42 H      0.7215     1.0000     0.2785     0.9938     0.9938    -0.0000
 43 H      0.8570     1.0000     0.1430     0.9640     0.9640     0.0000
 44 Cl    17.7114    17.0000    -0.7114     0.5203     0.5203     0.0000
 45 H      0.8643     1.0000     0.1357     0.9701     0.9701     0.0000
 46 H      0.7299     1.0000     0.2701     1.0126     1.0126    -0.0000
 47 C      6.2461     6.0000    -0.2461     3.8943     3.8943     0.0000
 48 H      0.8623     1.0000     0.1377     0.9644     0.9644     0.0000
 49 N      7.2900     7.0000    -0.2900     3.2041     3.2041    -0.0000
 50 H      0.7335     1.0000     0.2665     1.0186     1.0186     0.0000
 51 H      0.8612     1.0000     0.1388     0.9652     0.9652    -0.0000
 52 H      0.7222     1.0000     0.2778     0.9907     0.9907    -0.0000
 53 H      0.8607     1.0000     0.1393     0.9656     0.9656    -0.0000
 54 H      0.7227     1.0000     0.2773     0.9893     0.9893    -0.0000
 55 C      6.2451     6.0000    -0.2451     3.8899     3.8899    -0.0000
 56 H      0.8628     1.0000     0.1372     0.9638     0.9638    -0.0000
 57 N      7.2919     7.0000    -0.2919     3.1990     3.1990     0.0000
 58 H      0.7235     1.0000     0.2765     1.0205     1.0205     0.0000
 59 H      0.8634     1.0000     0.1366     0.9704     0.9704    -0.0000
 60 H      0.7425     1.0000     0.2575     1.0197     1.0197     0.0000

  Mayer bond orders larger than 0.1
B(  0-C ,  1-N ) :   0.9341 B(  0-C ,  2-H ) :   0.9746 B(  0-C ,  3-H ) :   0.9745 
B(  0-C ,  4-H ) :   0.9742 B(  1-N ,  5-H ) :   0.7723 B(  1-N ,  6-H ) :   0.8162 
B(  1-N ,  7-H ) :   0.8096 B(  5-H , 11-Cl) :   0.2506 B(  6-H ,  9-Cl) :   0.1913 
B(  7-H , 10-Cl) :   0.1744 B(  8-Pb,  9-Cl) :   0.4748 B(  8-Pb, 10-Cl) :   0.1925 
B(  8-Pb, 11-Cl) :   0.3067 B(  8-Pb, 12-Cl) :   0.1679 B(  8-Pb, 13-Cl) :   0.2891 
B(  8-Pb, 14-Cl) :   0.2833 B( 10-Cl, 52-H ) :   0.1761 B( 12-Cl, 17-H ) :   0.2084 
B( 12-Cl, 46-H ) :   0.2214 B( 13-Cl, 18-H ) :   0.1234 B( 13-Cl, 50-H ) :   0.2358 
B( 14-Cl, 25-Pb) :   0.2970 B( 15-N , 16-C ) :   0.9307 B( 15-N , 17-H ) :   0.7935 
B( 15-N , 18-H ) :   0.8288 B( 15-N , 22-H ) :   0.8645 B( 16-C , 19-H ) :   0.9692 
B( 16-C , 20-H ) :   0.9678 B( 16-C , 21-H ) :   0.9707 B( 23-Cl, 25-Pb) :   0.3123 
B( 23-Cl, 28-H ) :   0.1425 B( 23-Cl, 60-H ) :   0.2055 B( 24-Cl, 25-Pb) :   0.1371 
B( 24-Cl, 33-H ) :   0.1809 B( 24-Cl, 58-H ) :   0.2674 B( 25-Pb, 34-Cl) :   0.4581 
B( 25-Pb, 40-Cl) :   0.3234 B( 25-Pb, 44-Cl) :   0.2003 B( 26-N , 27-C ) :   0.9262 
B( 26-N , 28-H ) :   0.8233 B( 26-N , 29-H ) :   0.8580 B( 26-N , 33-H ) :   0.8153 
B( 27-C , 30-H ) :   0.9706 B( 27-C , 31-H ) :   0.9687 B( 27-C , 32-H ) :   0.9667 
B( 34-Cl, 36-H ) :   0.2072 B( 35-H , 38-C ) :   0.9748 B( 36-H , 39-N ) :   0.7960 
B( 37-H , 38-C ) :   0.9739 B( 38-C , 39-N ) :   0.9326 B( 38-C , 43-H ) :   0.9743 
B( 39-N , 41-H ) :   0.7966 B( 39-N , 42-H ) :   0.8133 B( 40-Cl, 41-H ) :   0.2180 
B( 42-H , 44-Cl) :   0.1742 B( 44-Cl, 54-H ) :   0.1703 B( 45-H , 47-C ) :   0.9749 
B( 46-H , 49-N ) :   0.7894 B( 47-C , 48-H ) :   0.9757 B( 47-C , 49-N ) :   0.9383 
B( 47-C , 51-H ) :   0.9748 B( 49-N , 50-H ) :   0.7826 B( 49-N , 52-H ) :   0.8104 
B( 53-H , 55-C ) :   0.9756 B( 54-H , 57-N ) :   0.8156 B( 55-C , 56-H ) :   0.9747 
B( 55-C , 57-N ) :   0.9358 B( 55-C , 59-H ) :   0.9748 B( 57-N , 58-H ) :   0.7539 
B( 57-N , 60-H ) :   0.8117 

-------
TIMINGS
-------

Total SCF time: 0 days 0 hours 18 min 17 sec 

Total time                  ....    1097.994 sec
Sum of individual times     ....     641.946 sec  ( 58.5%)

Fock matrix formation       ....     566.516 sec  ( 51.6%)
  Coulomb formation         ....     517.792 sec  ( 91.4% of F)
  Split-RI-J                ....      40.762 sec  (  7.2% of F)
  Chain of spheres X        ....     912.806 sec  (161.1% of F)
  COS-X 1 center corr.      ....       0.000 sec  (  0.0% of F)
  XC integration            ....      48.667 sec  (  8.6% of F)
    Basis function eval.    ....      20.831 sec  ( 42.8% of XC)
    Density eval.           ....      12.947 sec  ( 26.6% of XC)
    XC-Functional eval.     ....       1.420 sec  (  2.9% of XC)
    XC-Potential eval.      ....      12.626 sec  ( 25.9% of XC)
Diagonalization             ....       1.151 sec  (  0.1%)
Density matrix formation    ....       0.350 sec  (  0.0%)
Population analysis         ....       7.450 sec  (  0.7%)
Initial guess               ....       1.053 sec  (  0.1%)
Orbital Transformation      ....       0.000 sec  (  0.0%)
Orbital Orthonormalization  ....       0.933 sec  (  0.1%)
DIIS solution               ....       0.328 sec  (  0.0%)
SOSCF solution              ....       0.712 sec  (  0.1%)
Grid generation             ....      64.386 sec  (  5.9%)

------------------------------------------------------------------------------
                              ORCA MP2 CALCULATION
------------------------------------------------------------------------------


-------------
RI-MP2 ENERGY
-------------
Dimension of the basis                    ... 1095
Memory devoted to MP2                     ... 4000 MB   
Data format for buffers                   ... DOUBLE
Compression type for matrix containers    ... UNCOMPRESSED
Overall scaling of the MP2 energy         ...   2.700e-01 Eh
Calculating two index integrals           ... done (    0.083 sec)
Cholesky decomposition of V**-1           ... done (    0.795 sec)

-----------------
RI-TRANSFORMATION (AUX index driven)
-----------------

Dimension of the orbital-basis         ... 1095
Dimension of the aux-basis             ... 1897
Transformation of internal/external MOs...    0- 172 to  173-1094
Number Format for Storage              ... Double (8 Byte)
Integral mode                          ... Direct

First Phase: integral generation and transformation of MO indices
  Aux angular momentum 0               ... done (   33.373 sec)
  Aux angular momentum 1               ... done (   34.261 sec)
  Aux angular momentum 2               ... done (   43.156 sec)
  Aux angular momentum 3               ... done (   17.398 sec)
  Aux angular momentum 4               ... done (   17.009 sec)
Closing buffer VIA ( 2.25 GB; CompressionRatio= 1.00)
  Phase 1 completed in   145.356 sec
Second Phase: sorting and transformation of aux index

IA-Transformation
Memory available                       ... 3892 MB 
Max. # MO pairs treated in a batch     ... 173    
# of internal orbitals                 ... 173
# batches for internal orbitals        ... 1
Closing buffer IAV ( 2.25 GB; CompressionRatio= 1.00)
(ia|v) transformation done in    67.240 sec

  Phase 2 completed in    68.793 sec
RI-Integral transformation completed in   214.152 sec
Opening buffers                              ... done

Starting loop over batches of integrals:

Operator 0  - window                       ... (  0-172)x(173-1094)
Operator 0  - Memory available             ...  4000 MB
Operator 0  - Memory needed per MO         ...  13.3 MB
Operator 0  - Number of orbitals per batch ... 173
Operator 0  - Number of batches            ... 1

OPERATOR  0   PASS   0:  MOs     0 ...  172
  Reading integrals       ... ok
  Internal MO   2
  Internal MO   5
  Internal MO   8
  Internal MO  11
  Internal MO  14
  Internal MO  17
  Internal MO  20
  Internal MO  23
  Internal MO  26
  Internal MO  29
  Internal MO  32
  Internal MO  35
  Internal MO  38
  Internal MO  41
  Internal MO  44
  Internal MO  47
  Internal MO  50
  Internal MO  53
  Internal MO  56
  Internal MO  59
  Internal MO  62
  Internal MO  65
  Internal MO  68
  Internal MO  71
  Internal MO  74
  Internal MO  77
  Internal MO  80
  Internal MO  83
  Internal MO  86
  Internal MO  89
  Internal MO  92
  Internal MO  95
  Internal MO  98
  Internal MO 101
  Internal MO 104
  Internal MO 107
  Internal MO 110
  Internal MO 113
  Internal MO 116
  Internal MO 119
  Internal MO 122
  Internal MO 125
  Internal MO 128
  Internal MO 131
  Internal MO 134
  Internal MO 137
  Internal MO 140
  Internal MO 143
  Internal MO 146
  Internal MO 149
  Internal MO 152
  Internal MO 155
  Internal MO 158
  Internal MO 161
  Internal MO 164
  Internal MO 167
  Internal MO 170
Time spent in pair loops =  2803.069 sec

-----------------------------------------------
 RI-MP2 CORRELATION ENERGY:     -2.217787573 Eh
-----------------------------------------------


-------
TIMINGS
-------

Total time                : 3018.138 sec
Integral trafo            :  214.163 sec (  7.1%)
I/O of integrals          :    1.582 sec (  0.1%)
K(i,j) Operators          : 2613.062 sec ( 86.6%)
T(i,j) pair energies      :  160.312 sec (  5.3%)
V-calculation             :    0.083 sec (  0.0%)
V**(-1/2)                 :    0.795 sec (  0.0%)
Gamma(ia|P)               :    0.000 sec (  0.0%)
Gamma-Trafo               :    0.000 sec (  0.0%)
D(virtual)                :    0.000 sec (  0.0%)
D(internal)               :    0.000 sec (  0.0%)
W(virtual)                :    0.000 sec (  0.0%)
W(internal)               :    0.000 sec (  0.0%)
L(virtual)                :    0.000 sec (  0.0%)
L(internal)               :    0.000 sec (  0.0%)
G(D)                      :    0.000 sec (  0.0%)
G(Z)                      :    0.000 sec (  0.0%)
Z-Vector Solution         :    0.000 sec (  0.0%)
Z-Vector Solution         :    0.000 sec (  0.0%)
3-Index Derivative 
+ Separable RIJ part      :    0.000 sec (  0.0%)
2-Index Derivative 
+ Separable RIJ part      :    0.000 sec (  0.0%)
Separable Gradient (COSX) :    0.000 sec (  0.0%)


---------------------------------------
MP2 TOTAL ENERGY:    -6025.862917603 Eh
---------------------------------------

Entering the calculation of the dispersion correction...

Checking the input atom types...

Done


-------------------------------------------------------------------------------
                          DFT DISPERSION CORRECTION                            
                                                                               
                                DFTD3 V2.1  Rev 6                               
                          USING Becke-Johnson damping                          
-------------------------------------------------------------------------------
The B2PLYP functional is recognized
Active option DFTDOPT                   ...         4   

molecular C6(AA) [au] = 68512.109035 


            DFT-D V3
 parameters
 s6 scaling factor         :     0.6400 
 a1 scaling factor         :     0.3065 
 s8 scaling factor         :     0.9147 
 a2 scaling factor         :     5.0570 
 ad hoc parameters k1-k3   :    16.0000     1.3333    -4.0000 

 Edisp/kcal,au: -50.234816139638  -0.080054266680 
 E6   /kcal   : -25.000918380 
 E8   /kcal   : -25.233897759 
 % E8         :  50.231890347 

-------------------------   ----------------
Dispersion correction           -0.080054267
-------------------------   ----------------


-------------------------   --------------------
FINAL SINGLE POINT ENERGY     -6025.942971869772
-------------------------   --------------------


                            ***************************************
                            *     ORCA property calculations      *
                            ***************************************


  WARNING: The energy has been calculated at the MP2 level but the densities
           used in the property calculations are still SCF densities
           MP2 response densities have not been calculated 
           use %mp2 Density relaxed end
           or  %mp2 Density unrelaxed end

                                    ---------------------
                                    Active property flags
                                    ---------------------
   (+) Dipole Moment


------------------------------------------------------------------------------
                       ORCA ELECTRIC PROPERTIES CALCULATION
------------------------------------------------------------------------------

Dipole Moment Calculation                       ... on
Quadrupole Moment Calculation                   ... off
Polarizability Calculation                      ... off
GBWName                                         ... Pb2Cl11_6NH3CH3_-1_mp2_sp2_9.orca.gbw
Electron density file                           ... Pb2Cl11_6NH3CH3_-1_mp2_sp2_9.orca.scfp.tmp

-------------
DIPOLE MOMENT
-------------
                                X             Y             Z
Electronic contribution:    -27.28669       3.27956      30.55348
Nuclear contribution   :     28.57056      -3.48320     -32.43065
                        -----------------------------------------
Total Dipole Moment    :      1.28386      -0.20364      -1.87717
                        -----------------------------------------
Magnitude (a.u.)       :      2.28332
Magnitude (Debye)      :      5.80374


Timings for individual modules:

Sum of individual times         ...     4125.537 sec (=  68.759 min)
GTO integral calculation        ...        6.706 sec (=   0.112 min)   0.2 %
SCF iterations                  ...     1100.007 sec (=  18.333 min)  26.7 %
MP2 module                      ...     3018.825 sec (=  50.314 min)  73.2 %
                             ****ORCA TERMINATED NORMALLY****
TOTAL RUN TIME: 0 days 1 hours 8 minutes 46 seconds 318 msec
