
                                 *****************
                                 * O   R   C   A *
                                 *****************

           --- An Ab Initio, DFT and Semiempirical electronic structure package ---

                  #######################################################
                  #                        -***-                        #
                  #  Department of molecular theory and spectroscopy    #
                  #              Directorship: Frank Neese              #
                  # Max Planck Institute for Chemical Energy Conversion #
                  #                  D-45470 Muelheim/Ruhr              #
                  #                       Germany                       #
                  #                                                     #
                  #                  All rights reserved                #
                  #                        -***-                        #
                  #######################################################


                         Program Version 3.0.3 - RELEASE   -


 With contributions from (in alphabetic order):
   Ute Becker             : Parallelization
   Dmytro Bykov           : SCF Hessian
   Dmitry Ganyushin       : Spin-Orbit,Spin-Spin,Magnetic field MRCI
   Andreas Hansen         : Spin unrestricted coupled pair/coupled cluster methods
   Dimitrios Liakos       : Extrapolation schemes; parallel MDCI
   Robert Izsak           : Overlap fitted RIJCOSX, COSX-SCS-MP3
   Christian Kollmar      : KDIIS, OOCD, Brueckner-CCSD(T), CCSD density
   Simone Kossmann        : Meta GGA functionals, TD-DFT gradient, OOMP2, MP2 Hessian
   Taras Petrenko         : DFT Hessian,TD-DFT gradient, ASA and ECA modules, normal mode analysis, Resonance Raman, ABS, FL, XAS/XES, NRVS
   Christoph Reimann      : Effective Core Potentials
   Michael Roemelt        : Restricted open shell CIS
   Christoph Riplinger    : Improved optimizer, TS searches, QM/MM, DLPNO-CCSD
   Barbara Sandhoefer     : DKH picture change effects
   Igor Schapiro          : Molecular dynamics
   Kantharuban Sivalingam : CASSCF convergence, NEVPT2
   Boris Wezisla          : Elementary symmetry handling
   Frank Wennmohs         : Technical directorship


 We gratefully acknowledge several colleagues who have allowed us to
 interface, adapt or use parts of their codes:
   Stefan Grimme, W. Hujo, H. Kruse, T. Risthaus : VdW corrections, initial TS optimization,
                                                   DFT functionals, gCP
   Ed Valeev                                     : LibInt (2-el integral package), F12 methods
   Garnet Chan, S. Sharma, R. Olivares           : DMRG
   Ulf Ekstrom                                   : XCFun DFT Library
   Mihaly Kallay                                 : mrcc  (arbitrary order and MRCC methods)
   Andreas Klamt, Michael Diedenhofen            : otool_cosmo (COSMO solvation model)
   Frank Weinhold                                : gennbo (NPA and NBO analysis)
   Christopher J. Cramer and Donald G. Truhlar   : smd solvation model


 Your calculation uses the libint2 library for the computation of 2-el integrals
 For citations please refer to: http://libint.valeyev.net

 This ORCA versions uses:
   CBLAS   interface :  Fast vector & matrix operations
   LAPACKE interface :  Fast linear algebra routines
   SCALAPACK package :  Parallel linear algebra routines


Your calculation utilizes the basis: Ahlrichs-TZV
Cite in your paper:
H - Kr: A. Schaefer, H. Horn and R. Ahlrichs, J. Chem. Phys. 97, 2571 (1992).

The def2-TZV basis will be loaded
Cite in your paper:
 	F. Weigend, R. Ahlrichs, Phys. Chem. Chem. Phys. 2005, 7, 3297.

Your calculation utilizes the atom-pairwise dispersion correction
with the Becke-Johnson damping scheme (D3BJ)
Cite in your paper:
S.Grimme, S.Ehrlich, L.Goerigk, J Comput Chem, (2011), 32, 1456–1465 
S.Grimme, J.Antony, S.Ehrlich and H.Krieg, J.Chem.Phys., 132, (2010), 154104 
   

================================================================================
                                        WARNINGS
                       Please study these warnings very carefully!
================================================================================

WARNING: The RI method has been chosen with no auxiliary basis (AUX or GTOAUX in BASIS block)
        Standard TZV/J expansion basis used (GTOAUX=TZV_J)

Now building the actual basis set
cite the ECPs for Pb [SD(60,MDF)] as follows:
  B. Metz, H. Stoll, M. Dolg, J. Chem. Phys. 113, 2563 (2000).

ECP parameters for Pb [SD(60,MDF)] have been obtained from:
  pseudopotential library of the Stuttgart/Cologne group
  http://www.theochem.uni-stuttgart.de/pseudopotentials/

cite the ECP basis sets for Pb [DEF2-TZVP] as follows:
  F. Weigend, R. Ahlrichs; Phys. Chem. Chem. Phys. 7, 3297(2005).

ECP basis sets for Pb [DEF2-TZVP] have been obtained from:
  Turbomole basis set library
  ftp://ftp.chemie.uni-karlsruhe.de/pub/basen/



INFO   : the flag for use of LIBINT has been found!

================================================================================
                                       INPUT FILE
================================================================================
NAME = PbMACl3_mp2_md2_15.orca
|  1> ! RIJCOSX RI-B2PLYP D3BJ def2-TZVP ECP{def2-TZVP} TIGHTSCF Grid5 FinalGrid6 SlowConv MORead
|  2> %method
|  3>  RunTyp Gradient
|  4>  end
|  5> %maxcore 1000
|  6> %moinp "previous.gbw"
|  7> *xyz 0 1
|  8> C -0.394281 0.276013 -0.426662 
|  9> N -1.165380 -0.685592 -1.253010 
| 10> H 0.248796 -0.278576 0.260517 
| 11> H -1.090820 0.897444 0.140826 
| 12> H 0.215705 0.904875 -1.079130 
| 13> H -1.783150 -1.324970 -0.698370 
| 14> H -0.582260 -1.326300 -1.835140 
| 15> H -1.813140 -0.240924 -1.938260 
| 16> Pb -2.586590 -2.502630 -3.150380 
| 17> Cl -0.161170 -2.134080 -3.606810 
| 18> Cl -3.543070 -0.179526 -2.915050 
| 19> Cl -2.596760 -3.394210 -0.821332 
| 20> *
| 21> 
| 22>                          ****END OF INPUT****
================================================================================

                     *******************************
                     * Energy+Gradient Calculation *
                     *******************************

---------------------------------
CARTESIAN COORDINATES (ANGSTROEM)
---------------------------------
  C     -0.394281    0.276013   -0.426662
  N     -1.165380   -0.685592   -1.253010
  H      0.248796   -0.278576    0.260517
  H     -1.090820    0.897444    0.140826
  H      0.215705    0.904875   -1.079130
  H     -1.783150   -1.324970   -0.698370
  H     -0.582260   -1.326300   -1.835140
  H     -1.813140   -0.240924   -1.938260
  Pb    -2.586590   -2.502630   -3.150380
  Cl    -0.161170   -2.134080   -3.606810
  Cl    -3.543070   -0.179526   -2.915050
  Cl    -2.596760   -3.394210   -0.821332

----------------------------
CARTESIAN COORDINATES (A.U.)
----------------------------
  NO LB      ZA    FRAG    MASS        X           Y           Z
   0 C     6.0000    0    12.011         -0.745083109808605          0.521588979402006         -0.806274331751109
   1 N     7.0000    0    14.007         -2.202249041949148         -1.295581119607339         -2.367845743064668
   2 H     1.0000    0     1.008          0.470156303215072         -0.526432347483247          0.492305783230763
   3 H     1.0000    0     1.008         -2.061351061403979          1.695923380530824          0.266122572535594
   4 H     1.0000    0     1.008          0.407623375717484          1.709965935431992         -2.039260162898440
   5 H     1.0000    0     1.008         -3.369665155701680         -2.503830435661641         -1.319728040146585
   6 H     1.0000    0     1.008         -1.100311938736988         -2.506343771419756         -3.467912017404246
   7 H     1.0000    0     1.008         -3.426338042457978         -0.455280379088844         -3.662780576334205
   8 Pb   22.0000*   0   207.200  -4.887946720739371  -4.729285314535342  -5.953355417782833
   9 Cl   17.0000    0    35.453         -0.304567161004088         -4.032826747878665         -6.815883117088509
  10 Cl   17.0000    0    35.453         -6.695431973312370         -0.339254973918347         -5.508646166687145
  11 Cl   17.0000    0    35.453         -4.907165235521350         -6.414127341016852         -1.552092545025809
* core charge reduced due to ECP

--------------------------------
INTERNAL COORDINATES (ANGSTROEM)
--------------------------------
 C      0   0   0   0.000000     0.000     0.000
 N      1   0   0   1.483957     0.000     0.000
 H      1   2   0   1.092397   109.099     0.000
 H      1   2   3   1.092422   109.061   240.173
 H      1   2   3   1.092367   109.305   120.114
 H      2   1   3   1.047888   114.015    60.210
 H      2   1   3   1.043749   114.711   299.789
 H      2   1   3   1.042540   114.361   179.708
 Pb     7   2   1   2.670383    97.225   185.438
 Cl     7   2   1   1.992145   149.655   231.233
 Cl     8   2   1   1.987598   151.280   218.166
 Cl     6   2   1   2.226844   138.864   210.788

---------------------------
INTERNAL COORDINATES (A.U.)
---------------------------
 C      0   0   0   0.000000     0.000     0.000
 N      1   0   0   2.804273     0.000     0.000
 H      1   2   0   2.064332   109.099     0.000
 H      1   2   3   2.064378   109.061   240.173
 H      1   2   3   2.064274   109.305   120.114
 H      2   1   3   1.980222   114.015    60.210
 H      2   1   3   1.972399   114.711   299.789
 H      2   1   3   1.970116   114.361   179.708
 Pb     7   2   1   5.046293    97.225   185.438
 Cl     7   2   1   3.764608   149.655   231.233
 Cl     8   2   1   3.756016   151.280   218.166
 Cl     6   2   1   4.208126   138.864   210.788

---------------------
BASIS SET INFORMATION
---------------------
There are 5 groups of distinct atoms

 Group   1 Type C   : 11s6p2d1f contracted to 5s3p2d1f pattern {62111/411/11/1}
 Group   2 Type N   : 11s6p2d1f contracted to 5s3p2d1f pattern {62111/411/11/1}
 Group   3 Type H   : 5s1p contracted to 3s1p pattern {311/1}
 Group   4 Type Pb  : 10s9p8d2f contracted to 6s5p3d2f pattern {421111/33111/611/11}
 Group   5 Type Cl  : 14s9p3d1f contracted to 5s5p2d1f pattern {73211/51111/21/1}

Atom   0C    basis set group =>   1
Atom   1N    basis set group =>   2
Atom   2H    basis set group =>   3
Atom   3H    basis set group =>   3
Atom   4H    basis set group =>   3
Atom   5H    basis set group =>   3
Atom   6H    basis set group =>   3
Atom   7H    basis set group =>   3
Atom   8Pb   basis set group =>   4
Atom   9Cl   basis set group =>   5
Atom  10Cl   basis set group =>   5
Atom  11Cl   basis set group =>   5
-------------------------------
AUXILIARY BASIS SET INFORMATION
-------------------------------
There are 5 groups of distinct atoms

 Group   1 Type C   : 12s5p4d2f1g contracted to 6s4p3d1f1g pattern {711111/2111/211/2/1}
 Group   2 Type N   : 12s5p4d2f1g contracted to 6s4p3d1f1g pattern {711111/2111/211/2/1}
 Group   3 Type H   : 5s2p1d contracted to 3s1p1d pattern {311/2/1}
 Group   4 Type Pb  : 31s12p8d6f3g contracted to 31s12p8d6f3g pattern {1111111111111111111111111111111/111111111111/11111111/111111/111}
 Group   5 Type Cl  : 14s5p5d2f1g contracted to 8s4p3d1f1g pattern {71111111/2111/311/2/1}

Atom   0C    basis set group =>   1
Atom   1N    basis set group =>   2
Atom   2H    basis set group =>   3
Atom   3H    basis set group =>   3
Atom   4H    basis set group =>   3
Atom   5H    basis set group =>   3
Atom   6H    basis set group =>   3
Atom   7H    basis set group =>   3
Atom   8Pb   basis set group =>   4
Atom   9Cl   basis set group =>   5
Atom  10Cl   basis set group =>   5
Atom  11Cl   basis set group =>   5

-------------------------
ECP PARAMETER INFORMATION
-------------------------

 Group 1, Type Pb ECP SD(60,MDF) (replacing 60 core electrons, lmax=5)

Atom   8Pb   ECP group =>   1


------------------------------------------------------------------------------
                           ORCA GTO INTEGRAL CALCULATION
                           -- RI-GTO INTEGRALS CHOSEN --
------------------------------------------------------------------------------

                         BASIS SET STATISTICS AND STARTUP INFO

Gaussian basis set:
 # of primitive gaussian shells          ...  186
 # of primitive gaussian functions       ...  420
 # of contracted shells                  ...  101
 # of contracted basis functions         ...  259
 Highest angular momentum                ...    3
 Maximum contraction depth               ...    7
Auxiliary gaussian basis set:
 # of primitive gaussian shells          ...  237
 # of primitive gaussian functions       ...  643
 # of contracted shells                  ...  171
 # of contracted aux-basis functions     ...  493
 Highest angular momentum                ...    4
 Maximum contraction depth               ...    7
Ratio of auxiliary to basis functions    ...  1.90
Integral package used                  ... LIBINT
 One Electron integrals                  
   ECP integrals                         ... done
 Ordering auxiliary basis shells         ... done
 Integral threshhold             Thresh  ...  2.500e-11
 Primitive cut-off               TCut    ...  2.500e-12
 Pre-screening matrix                    ... done
 Shell pair data                         ... 
 Ordering of the shell pairs             ... done (   0.001 sec) 4507 of 5151 pairs
 Determination of significant pairs      ... done (   0.000 sec)
 Creation of shell pair data             ... done (   0.002 sec)
 Storage of shell pair data              ... done (   0.001 sec)
 Shell pair data done in (   0.003 sec)
 Computing two index integrals           ... done
 Cholesky decomposition of the V-matrix  ... done


Timings:
 Total evaluation time                   ...   0.570 sec (  0.010 min)
 One electron matrix time                ...   0.307 sec (  0.005 min) = 53.9%
 Schwartz matrix evaluation time         ...   0.216 sec (  0.004 min) = 37.8%
 Two index repulsion integral time       ...   0.008 sec (  0.000 min) =  1.5%
 Cholesky decomposition of V             ...   0.008 sec (  0.000 min) =  1.5%
 Three index repulsion integral time     ...   0.000 sec (  0.000 min) =  0.0%

-------------------------------------------------------------------------------
                                 ORCA SCF
-------------------------------------------------------------------------------

------------
SCF SETTINGS
------------
Hamiltonian:
 Density Functional     Method          .... DFT(GTOs)
 Exchange Functional    Exchange        .... B88
   X-Alpha parameter    XAlpha          ....  0.666667
   Becke's b parameter  XBeta           ....  0.004200
 Correlation Functional Correlation     .... LYP
 LDA part of GGA corr.  LDAOpt          .... VWN-3
 Gradients option       PostSCFGGA      .... off
 Hybrid DFT is turned on
   Fraction HF Exchange ScalHFX         ....  0.530000
   Scaling of DF-GGA-X  ScalDFX         ....  0.470000
   Scaling of DF-GGA-C  ScalDFC         ....  0.730000
   Scaling of DF-LDA-C  ScalLDAC        ....  0.730000
   Perturbative correction              ....  0.270000
 RI-approximation to the Coulomb term is turned on
   Number of auxiliary basis functions  .... 493
   RIJ-COSX (HFX calculated with COS-X)).... on


General Settings:
 Integral files         IntName         .... PbMACl3_mp2_md2_15.orca
 Hartree-Fock type      HFTyp           .... RHF
 Total Charge           Charge          ....    0
 Multiplicity           Mult            ....    1
 Number of Electrons    NEL             ....   92
 Basis Dimension        Dim             ....  259
 Nuclear Repulsion      ENuc            ....    614.5093039209 Eh

Convergence Acceleration:
 DIIS                   CNVDIIS         .... on
   Start iteration      DIISMaxIt       ....     0
   Startup error        DIISStart       ....  0.200000
   # of expansion vecs  DIISMaxEq       ....     5
   Bias factor          DIISBfac        ....   1.050
   Max. coefficient     DIISMaxC        ....  10.000
 Newton-Raphson         CNVNR           .... off
 SOSCF                  CNVSOSCF        .... on
   Start iteration      SOSCFMaxIt      ....   150
   Startup grad/error   SOSCFStart      ....  0.001000
 Level Shifting         CNVShift        .... on
   Level shift para.    LevelShift      ....    0.2500
   Turn off err/grad.   ShiftErr        ....    0.0000
 Zerner damping         CNVZerner       .... off
 Static damping         CNVDamp         .... on
   Fraction old density DampFac         ....    0.8500
   Max. Damping (<1)    DampMax         ....    0.9800
   Min. Damping (>=0)   DampMin         ....    0.0000
   Turn off err/grad.   DampErr         ....    0.0300
 Fernandez-Rico         CNVRico         .... off

SCF Procedure:
 Maximum # iterations   MaxIter         ....   125
 SCF integral mode      SCFMode         .... Direct
   Integral package                     .... LIBINT
 Reset frequeny         DirectResetFreq ....    20
 Integral Threshold     Thresh          ....  2.500e-11 Eh
 Primitive CutOff       TCut            ....  2.500e-12 Eh

Convergence Tolerance:
 Convergence Check Mode ConvCheckMode   .... Total+1el-Energy
 Energy Change          TolE            ....  1.000e-08 Eh
 1-El. energy change                    ....  1.000e-05 Eh
 Orbital Gradient       TolG            ....  1.000e-05
 Orbital Rotation angle TolX            ....  1.000e-05
 DIIS Error             TolErr          ....  5.000e-07


Diagonalization of the overlap matrix:
Smallest eigenvalue                        ... 1.056e-03
Time for diagonalization                   ...    0.018 sec
Threshold for overlap eigenvalues          ... 1.000e-08
Number of eigenvalues below threshold      ... 0
Time for construction of square roots      ...    0.005 sec
Total time needed                          ...    0.024 sec

---------------------
INITIAL GUESS: MOREAD
---------------------
Guess MOs are being read from file: previous.gbw
Input geometry compatible with but different from current geometry
Input basis set matches current basis set (good)
MOs were renormalized
MOs were reorthogonalized (Schmidt)
                      ------------------
                      INITIAL GUESS DONE (   0.1 sec)
                      ------------------
-------------------
DFT GRID GENERATION
-------------------

General Integration Accuracy     IntAcc      ...  5.010
Radial Grid Type                 RadialGrid  ... Gauss-Chebyshev
Angular Grid (max. acc.)         AngularGrid ... Lebedev-434
Angular grid pruning method      GridPruning ... 3 (G Style)
Weight generation scheme         WeightScheme... Becke
Basis function cutoff            BFCut       ...    1.0000e-11
Integration weight cutoff        WCut        ...    1.0000e-14
Grids for H and He will be reduced by one unit

# of grid points (after initial pruning)     ... 115882 (   0.0 sec)
# of grid points (after weights+screening)   ... 108477 (   0.2 sec)
nearest neighbour list constructed           ...    0.0 sec
Grid point re-assignment to atoms done       ...    0.0 sec
Grid point division into batches done        ...    0.9 sec
Reduced shell lists constructed in    3.4 sec

Total number of grid points                  ...   108477
Total number of batches                      ...     1700
Average number of points per batch           ...       63
Average number of grid points per atom       ...     9040
Average number of shells per batch           ...    56.44 (55.88%)
Average number of basis functions per batch  ...   149.72 (57.81%)
Average number of large shells per batch     ...    42.85 (75.93%)
Average number of large basis fcns per batch ...   110.57 (73.86%)
Maximum spatial batch extension              ...  31.51, 35.95, 33.22 au
Average spatial batch extension              ...   2.43,  2.44,  2.43 au

Time for grid setup =    3.623 sec

--------------------
COSX GRID GENERATION
--------------------

General Integration Accuracy     IntAcc      ...  3.340
Radial Grid Type                 RadialGrid  ... Gauss-Chebyshev
Angular Grid (max. acc.)         AngularGrid ... Lebedev-50
Angular grid pruning method      GridPruning ... 3 (G Style)
Weight generation scheme         WeightScheme... Becke
Basis function cutoff            BFCut       ...    1.0000e-11
Integration weight cutoff        WCut        ...    1.0000e-14
Grids for H and He will be reduced by one unit

# of grid points (after initial pruning)     ...   6578 (   0.0 sec)
# of grid points (after weights+screening)   ...   6200 (   0.0 sec)
nearest neighbour list constructed           ...    0.0 sec
Grid point re-assignment to atoms done       ...    0.0 sec
Grid point division into batches done        ...    0.0 sec
Reduced shell lists constructed in    0.2 sec

Total number of grid points                  ...     6200
Total number of batches                      ...      104
Average number of points per batch           ...       59
Average number of grid points per atom       ...      517
Average number of shells per batch           ...    68.20 (67.52%)
Average number of basis functions per batch  ...   183.21 (70.74%)
Average number of large shells per batch     ...    53.57 (78.55%)
Average number of large basis fcns per batch ...   141.17 (77.05%)
Maximum spatial batch extension              ...  40.64, 36.53, 29.58 au
Average spatial batch extension              ...   6.29,  6.38,  6.00 au

Overlap Fitting                  UseSFitting ... on
Constructing numerical overlap ... done (      0.1 sec)
Inverting numerical overlap    ... done (      0.0 sec)
Obtaining analytic overlap     ... done (      0.0 sec)
Final contraction and storage  ... done (      0.0 sec)


General Integration Accuracy     IntAcc      ...  3.670
Radial Grid Type                 RadialGrid  ... Gauss-Chebyshev
Angular Grid (max. acc.)         AngularGrid ... Lebedev-50
Angular grid pruning method      GridPruning ... 3 (G Style)
Weight generation scheme         WeightScheme... Becke
Basis function cutoff            BFCut       ...    1.0000e-11
Integration weight cutoff        WCut        ...    1.0000e-14
Grids for H and He will be reduced by one unit

# of grid points (after initial pruning)     ...   8124 (   0.0 sec)
# of grid points (after weights+screening)   ...   7637 (   0.0 sec)
nearest neighbour list constructed           ...    0.0 sec
Grid point re-assignment to atoms done       ...    0.0 sec
Grid point division into batches done        ...    0.0 sec
Reduced shell lists constructed in    0.2 sec

Total number of grid points                  ...     7637
Total number of batches                      ...      123
Average number of points per batch           ...       62
Average number of grid points per atom       ...      636
Average number of shells per batch           ...    67.36 (66.70%)
Average number of basis functions per batch  ...   180.77 (69.79%)
Average number of large shells per batch     ...    52.56 (78.03%)
Average number of large basis fcns per batch ...   137.35 (75.98%)
Maximum spatial batch extension              ...  42.24, 31.02, 31.82 au
Average spatial batch extension              ...   6.10,  5.81,  5.86 au

Overlap Fitting                  UseSFitting ... on
Constructing numerical overlap ... done (      0.1 sec)
Inverting numerical overlap    ... done (      0.0 sec)
Obtaining analytic overlap     ... done (      0.0 sec)
Final contraction and storage  ... done (      0.0 sec)


General Integration Accuracy     IntAcc      ...  4.010
Radial Grid Type                 RadialGrid  ... Gauss-Chebyshev
Angular Grid (max. acc.)         AngularGrid ... Lebedev-110
Angular grid pruning method      GridPruning ... 3 (G Style)
Weight generation scheme         WeightScheme... Becke
Basis function cutoff            BFCut       ...    1.0000e-11
Integration weight cutoff        WCut        ...    1.0000e-14
Grids for H and He will be reduced by one unit

# of grid points (after initial pruning)     ...  15170 (   0.0 sec)
# of grid points (after weights+screening)   ...  14361 (   0.0 sec)
nearest neighbour list constructed           ...    0.0 sec
Grid point re-assignment to atoms done       ...    0.0 sec
Grid point division into batches done        ...    0.0 sec
Reduced shell lists constructed in    0.4 sec

Total number of grid points                  ...    14361
Total number of batches                      ...      230
Average number of points per batch           ...       62
Average number of grid points per atom       ...     1197
Average number of shells per batch           ...    63.73 (63.10%)
Average number of basis functions per batch  ...   171.00 (66.02%)
Average number of large shells per batch     ...    49.46 (77.61%)
Average number of large basis fcns per batch ...   129.21 (75.56%)
Maximum spatial batch extension              ...  39.26, 31.45, 35.21 au
Average spatial batch extension              ...   4.98,  4.94,  4.82 au

Overlap Fitting                  UseSFitting ... on
Constructing numerical overlap ... done (      0.2 sec)
Inverting numerical overlap    ... done (      0.0 sec)
Obtaining analytic overlap     ... done (      0.0 sec)
Final contraction and storage  ... done (      0.0 sec)

Time for X-Grid setup             =    1.389 sec
--------------
SCF ITERATIONS
--------------
ITER       Energy         Delta-E        Max-DP      RMS-DP      [F,P]     Damp
               ***  Starting incremental Fock matrix formation  ***
  0  -1668.9473007657   0.000000000000 0.00653827  0.00021262  0.3374087 0.8500
  1  -1668.9564819181  -0.009181152328 0.00755151  0.00023936  0.2870831 0.8500
                               ***Turning on DIIS***
  2  -1668.9646772530  -0.008195334949 0.00712430  0.00022402  0.2441139 0.8500
  3  -1668.9716688904  -0.006991637378 0.00843339  0.00020818  0.2075666 0.8500
  4  -1668.9777069514  -0.006038061040 0.01104884  0.00019710  0.1764720 0.8500
  5  -1668.9829075301  -0.005200578636 0.01065648  0.00018067  0.1500204 0.8500
  6  -1668.9874422977  -0.004534767658 0.00934486  0.00016120  0.1275271 0.8500
  7  -1668.9914093902  -0.003967092525 0.00773037  0.00014136  0.1084034 0.8500
  8  -1668.9948778684  -0.003468478197 0.00671200  0.00012334  0.0921465 0.8500
  9  -1668.9978911624  -0.003013293933 0.00600500  0.00010717  0.0783272 0.8500
 10  -1669.0005011908  -0.002610028462 0.00530922  0.00009272  0.0665805 0.8500
 11  -1669.0027586638  -0.002257472981 0.00459135  0.00007991  0.0565956 0.8500
 12  -1669.0047084229  -0.001949759086 0.00391502  0.00006870  0.0481081 0.8500
 13  -1669.0063893822  -0.001680959288 0.00334327  0.00005898  0.0408933 0.8500
 14  -1669.0078357306  -0.001446348448 0.00287489  0.00005061  0.0347605 0.8500
 15  -1669.0090780594  -0.001242328744 0.01652367  0.00028934  0.0295473 0.0000
                      *** Initiating the SOSCF procedure ***
                           *** Shutting down DIIS ***
                      *** Re-Reading the Fockian *** 
                      *** Removing any level shift *** 
ITER      Energy       Delta-E        Grad      Rot      Max-DP    RMS-DP
 16  -1669.01636207  -0.0072840124  0.000183  0.000183  0.000629  0.000007
               *** Restarting incremental Fock matrix formation ***
 17  -1669.01635816   0.0000039077  0.000107  0.000307  0.000277  0.000006
 18  -1669.01635842  -0.0000002569  0.000033  0.000184  0.000281  0.000004
 19  -1669.01635842   0.0000000026  0.000031  0.000042  0.000137  0.000001
                  ***Gradient check signals convergence***
              ***Rediagonalizing the Fockian in SOSCF/NRSCF***

               *****************************************************
               *                     SUCCESS                       *
               *           SCF CONVERGED AFTER  20 CYCLES          *
               *****************************************************

Old exchange energy                            =    -59.232408939 Eh
New exchange energy                            =    -59.234809001 Eh
Exchange energy change after final integration =     -0.002400063 Eh
Total energy after final integration           =  -1669.018758479 Eh
Final COS-X integration done in                =    20.356 sec

----------------
TOTAL SCF ENERGY
----------------

Total Energy       :        -1669.01875848 Eh          -45416.30934 eV

Components:
Nuclear Repulsion  :          614.50930392 Eh           16721.64827 eV
Electronic Energy  :        -2283.52806240 Eh          -62137.95761 eV

One Electron Energy:        -3599.10947032 Eh          -97936.74770 eV
Two Electron Energy:         1315.58140792 Eh           35798.79008 eV

Virial components:
Potential Energy   :        -3206.97713704 Eh          -87266.28443 eV
Kinetic Energy     :         1537.95837856 Eh           41849.97509 eV
Virial Ratio       :            2.08521712


DFT components:
N(Alpha)           :       45.999993062169 electrons
N(Beta)            :       45.999993062169 electrons
N(Total)           :       91.999986124337 electrons
E(X)               :      -52.602059305903 Eh       
E(C)               :       -2.613525077367 Eh       
E(XC)              :      -55.215584383270 Eh       

---------------
SCF CONVERGENCE
---------------

  Last Energy change         ...    2.2512e-09  Tolerance :   1.0000e-08
  Last MAX-Density change    ...    5.7288e-14  Tolerance :   1.0000e-07
  Last RMS-Density change    ...    3.9915e-16  Tolerance :   5.0000e-09
  Last Orbital Gradient      ...    1.3434e-06  Tolerance :   1.0000e-05
  Last Orbital Rotation      ...    2.4149e-06  Tolerance :   1.0000e-05

             **** THE GBW FILE WAS UPDATED (PbMACl3_mp2_md2_15.orca.gbw) ****
             **** DENSITY FILE WAS UPDATED (PbMACl3_mp2_md2_15.orca.scfp.tmp) ****
             **** ENERGY FILE WAS UPDATED (PbMACl3_mp2_md2_15.orca.en.tmp) ****
----------------
ORBITAL ENERGIES
----------------

  NO   OCC          E(Eh)            E(eV) 
   0   2.0000    -102.867144     -2799.1573 
   1   2.0000    -102.864929     -2799.0970 
   2   2.0000    -102.862750     -2799.0377 
   3   2.0000     -14.957106      -407.0035 
   4   2.0000     -10.709002      -291.4068 
   5   2.0000      -9.875761      -268.7331 
   6   2.0000      -9.873277      -268.6655 
   7   2.0000      -9.870705      -268.5955 
   8   2.0000      -7.512668      -204.4301 
   9   2.0000      -7.511135      -204.3884 
  10   2.0000      -7.510637      -204.3748 
  11   2.0000      -7.510181      -204.3624 
  12   2.0000      -7.508713      -204.3225 
  13   2.0000      -7.508196      -204.3084 
  14   2.0000      -7.507783      -204.2972 
  15   2.0000      -7.506015      -204.2491 
  16   2.0000      -7.505657      -204.2393 
  17   2.0000      -5.799057      -157.8004 
  18   2.0000      -3.570932       -97.1700 
  19   2.0000      -3.569301       -97.1256 
  20   2.0000      -3.569035       -97.1184 
  21   2.0000      -1.143910       -31.1274 
  22   2.0000      -0.977035       -26.5865 
  23   2.0000      -0.975690       -26.5499 
  24   2.0000      -0.963273       -26.2120 
  25   2.0000      -0.959220       -26.1017 
  26   2.0000      -0.958609       -26.0851 
  27   2.0000      -0.908904       -24.7325 
  28   2.0000      -0.880455       -23.9584 
  29   2.0000      -0.874609       -23.7993 
  30   2.0000      -0.857281       -23.3278 
  31   2.0000      -0.670422       -18.2431 
  32   2.0000      -0.669240       -18.2109 
  33   2.0000      -0.609224       -16.5778 
  34   2.0000      -0.559998       -15.2383 
  35   2.0000      -0.522216       -14.2102 
  36   2.0000      -0.521091       -14.1796 
  37   2.0000      -0.403348       -10.9756 
  38   2.0000      -0.401090       -10.9142 
  39   2.0000      -0.381728       -10.3874 
  40   2.0000      -0.365292        -9.9401 
  41   2.0000      -0.364783        -9.9262 
  42   2.0000      -0.361866        -9.8469 
  43   2.0000      -0.359667        -9.7870 
  44   2.0000      -0.353522        -9.6198 
  45   2.0000      -0.290024        -7.8920 
  46   0.0000      -0.006735        -0.1833 
  47   0.0000       0.032272         0.8782 
  48   0.0000       0.032841         0.8936 
  49   0.0000       0.042689         1.1616 
  50   0.0000       0.089967         2.4481 
  51   0.0000       0.110966         3.0195 
  52   0.0000       0.112224         3.0538 
  53   0.0000       0.115519         3.1434 
  54   0.0000       0.134703         3.6654 
  55   0.0000       0.143065         3.8930 
  56   0.0000       0.152264         4.1433 
  57   0.0000       0.156552         4.2600 
  58   0.0000       0.180224         4.9041 
  59   0.0000       0.223473         6.0810 
  60   0.0000       0.226761         6.1705 
  61   0.0000       0.265948         7.2368 
  62   0.0000       0.268915         7.3175 
  63   0.0000       0.272722         7.4211 
  64   0.0000       0.276638         7.5277 
  65   0.0000       0.279114         7.5951 
  66   0.0000       0.285522         7.7695 
  67   0.0000       0.323606         8.8058 
  68   0.0000       0.328855         8.9486 
  69   0.0000       0.353350         9.6151 
  70   0.0000       0.392632        10.6840 
  71   0.0000       0.404481        11.0065 
  72   0.0000       0.416792        11.3415 
  73   0.0000       0.420624        11.4458 
  74   0.0000       0.427982        11.6460 
  75   0.0000       0.432537        11.7699 
  76   0.0000       0.437398        11.9022 
  77   0.0000       0.442720        12.0470 
  78   0.0000       0.446207        12.1419 
  79   0.0000       0.449710        12.2372 
  80   0.0000       0.484185        13.1754 
  81   0.0000       0.484417        13.1817 
  82   0.0000       0.490937        13.3591 
  83   0.0000       0.518459        14.1080 
  84   0.0000       0.521116        14.1803 
  85   0.0000       0.525602        14.3024 
  86   0.0000       0.527907        14.3651 
  87   0.0000       0.544429        14.8147 
  88   0.0000       0.555358        15.1121 
  89   0.0000       0.556677        15.1479 
  90   0.0000       0.575548        15.6615 
  91   0.0000       0.584738        15.9115 
  92   0.0000       0.590988        16.0816 
  93   0.0000       0.617482        16.8025 
  94   0.0000       0.630137        17.1469 
  95   0.0000       0.631048        17.1717 
  96   0.0000       0.645153        17.5555 
  97   0.0000       0.656766        17.8715 
  98   0.0000       0.687549        18.7092 
  99   0.0000       0.699438        19.0327 
 100   0.0000       0.713037        19.4027 
 101   0.0000       0.724874        19.7248 
 102   0.0000       0.770778        20.9739 
 103   0.0000       0.788718        21.4621 
 104   0.0000       0.802340        21.8328 
 105   0.0000       0.866214        23.5709 
 106   0.0000       0.870747        23.6942 
 107   0.0000       0.878461        23.9041 
 108   0.0000       0.894158        24.3313 
 109   0.0000       0.896460        24.3939 
 110   0.0000       0.910881        24.7863 
 111   0.0000       0.914648        24.8888 
 112   0.0000       0.917344        24.9622 
 113   0.0000       0.950725        25.8706 
 114   0.0000       0.977455        26.5979 
 115   0.0000       0.987855        26.8809 
 116   0.0000       1.023754        27.8578 
 117   0.0000       1.068257        29.0688 
 118   0.0000       1.068967        29.0881 
 119   0.0000       1.090556        29.6756 
 120   0.0000       1.094798        29.7910 
 121   0.0000       1.097712        29.8703 
 122   0.0000       1.119860        30.4729 
 123   0.0000       1.230639        33.4874 
 124   0.0000       1.238969        33.7141 
 125   0.0000       1.289594        35.0916 
 126   0.0000       1.310787        35.6683 
 127   0.0000       1.323097        36.0033 
 128   0.0000       1.388121        37.7727 
 129   0.0000       1.414853        38.5001 
 130   0.0000       1.490909        40.5697 
 131   0.0000       1.566515        42.6270 
 132   0.0000       1.576792        42.9067 
 133   0.0000       1.589233        43.2452 
 134   0.0000       1.596681        43.4479 
 135   0.0000       1.649555        44.8867 
 136   0.0000       1.747179        47.5432 
 137   0.0000       1.780277        48.4438 
 138   0.0000       1.797894        48.9232 
 139   0.0000       1.879764        51.1510 
 140   0.0000       1.887546        51.3627 
 141   0.0000       1.905347        51.8471 
 142   0.0000       1.934073        52.6288 
 143   0.0000       1.936544        52.6960 
 144   0.0000       1.938128        52.7391 
 145   0.0000       1.952777        53.1378 
 146   0.0000       1.964642        53.4606 
 147   0.0000       1.965455        53.4828 
 148   0.0000       1.985468        54.0273 
 149   0.0000       2.005818        54.5811 
 150   0.0000       2.024552        55.0909 
 151   0.0000       2.030535        55.2537 
 152   0.0000       2.035216        55.3810 
 153   0.0000       2.041406        55.5495 
 154   0.0000       2.092330        56.9352 
 155   0.0000       2.093675        56.9718 
 156   0.0000       2.099489        57.1300 
 157   0.0000       2.101390        57.1817 
 158   0.0000       2.110756        57.4366 
 159   0.0000       2.116272        57.5867 
 160   0.0000       2.127303        57.8869 
 161   0.0000       2.136091        58.1260 
 162   0.0000       2.145502        58.3821 
 163   0.0000       2.172707        59.1224 
 164   0.0000       2.179451        59.3059 
 165   0.0000       2.182324        59.3840 
 166   0.0000       2.205566        60.0165 
 167   0.0000       2.213394        60.2295 
 168   0.0000       2.225203        60.5509 
 169   0.0000       2.234035        60.7912 
 170   0.0000       2.238915        60.9240 
 171   0.0000       2.242725        61.0277 
 172   0.0000       2.259247        61.4772 
 173   0.0000       2.261038        61.5260 
 174   0.0000       2.261927        61.5502 
 175   0.0000       2.275339        61.9151 
 176   0.0000       2.285714        62.1974 
 177   0.0000       2.314304        62.9754 
 178   0.0000       2.316811        63.0436 
 179   0.0000       2.331405        63.4408 
 180   0.0000       2.370072        64.4929 
 181   0.0000       2.373992        64.5996 
 182   0.0000       2.376910        64.6790 
 183   0.0000       2.382717        64.8370 
 184   0.0000       2.397071        65.2276 
 185   0.0000       2.409350        65.5617 
 186   0.0000       2.412421        65.6453 
 187   0.0000       2.419215        65.8302 
 188   0.0000       2.427150        66.0461 
 189   0.0000       2.448359        66.6232 
 190   0.0000       2.457365        66.8683 
 191   0.0000       2.462085        66.9967 
 192   0.0000       2.480480        67.4973 
 193   0.0000       2.484239        67.5996 
 194   0.0000       2.509879        68.2973 
 195   0.0000       2.526899        68.7604 
 196   0.0000       2.562257        69.7226 
 197   0.0000       2.596147        70.6447 
 198   0.0000       2.601335        70.7859 
 199   0.0000       2.625200        71.4353 
 200   0.0000       2.636327        71.7381 
 201   0.0000       2.659679        72.3735 
 202   0.0000       2.690073        73.2006 
 203   0.0000       2.782100        75.7048 
 204   0.0000       2.789204        75.8981 
 205   0.0000       2.813317        76.5543 
 206   0.0000       2.848578        77.5138 
 207   0.0000       2.870589        78.1127 
 208   0.0000       2.907841        79.1264 
 209   0.0000       2.919061        79.4317 
 210   0.0000       2.947585        80.2079 
 211   0.0000       3.059890        83.2639 
 212   0.0000       3.146331        85.6160 
 213   0.0000       3.154851        85.8479 
 214   0.0000       3.229869        87.8892 
 215   0.0000       3.257407        88.6386 
 216   0.0000       3.304240        89.9129 
 217   0.0000       3.397918        92.4620 
 218   0.0000       3.415097        92.9295 
 219   0.0000       3.557526        96.8052 
 220   0.0000       3.583909        97.5231 
 221   0.0000       3.593022        97.7711 
 222   0.0000       3.783810       102.9627 
 223   0.0000       3.789616       103.1207 
 224   0.0000       3.931088       106.9703 
 225   0.0000       4.193744       114.1176 
 226   0.0000       4.204376       114.4069 
 227   0.0000       4.441599       120.8621 
 228   0.0000       4.460342       121.3721 
 229   0.0000       4.853294       132.0649 
 230   0.0000       4.859985       132.2469 
 231   0.0000       4.959557       134.9564 
 232   0.0000       4.974853       135.3726 
 233   0.0000       5.113455       139.1442 
 234   0.0000       5.129416       139.5785 
 235   0.0000       5.145129       140.0061 
 236   0.0000       5.331245       145.0706 
 237   0.0000       5.537135       150.6731 
 238   0.0000       5.551959       151.0765 
 239   0.0000       5.872098       159.7879 
 240   0.0000      11.041672       300.4592 
 241   0.0000      11.042890       300.4923 
 242   0.0000      11.055085       300.8242 
 243   0.0000      11.089581       301.7628 
 244   0.0000      11.107367       302.2468 
 245   0.0000      11.111394       302.3564 
 246   0.0000      11.166564       303.8577 
 247   0.0000      11.212971       305.1204 
 248   0.0000      11.219206       305.2901 
 249   0.0000      22.672494       616.9499 
 250   0.0000      25.298483       688.4067 
 251   0.0000      25.378209       690.5762 
 252   0.0000      25.493141       693.7036 
 253   0.0000      32.437343       882.6650 
 254   0.0000      35.566637       967.8174 
 255   0.0000      35.822243       974.7728 
 256   0.0000      35.826135       974.8787 
 257   0.0000      35.928703       977.6697 
 258   0.0000     123.631401      3364.1815 

                    ********************************
                    * MULLIKEN POPULATION ANALYSIS *
                    ********************************

-----------------------
MULLIKEN ATOMIC CHARGES
-----------------------
   0 C :   -0.263635
   1 N :   -0.320047
   2 H :    0.158010
   3 H :    0.158356
   4 H :    0.159836
   5 H :    0.297361
   6 H :    0.296769
   7 H :    0.297058
   8 Pb:    0.778366
   9 Cl:   -0.516898
  10 Cl:   -0.522647
  11 Cl:   -0.522529
Sum of atomic charges:   -0.0000000

--------------------------------
MULLIKEN REDUCED ORBITAL CHARGES
--------------------------------
  0 C s       :     3.282688  s :     3.282688
      pz      :     0.978409  p :     2.905421
      px      :     0.990728
      py      :     0.936284
      dz2     :     0.007009  d :     0.069382
      dxz     :     0.018330
      dyz     :     0.018020
      dx2y2   :     0.007643
      dxy     :     0.018379
      f0      :     0.000360  f :     0.006145
      f+1     :     0.000507
      f-1     :     0.000739
      f+2     :     0.000763
      f-2     :     0.002646
      f+3     :     0.000515
      f-3     :     0.000615
  1 N s       :     3.433569  s :     3.433569
      pz      :     1.278265  p :     3.837735
      px      :     1.286188
      py      :     1.273282
      dz2     :     0.005693  d :     0.046621
      dxz     :     0.012048
      dyz     :     0.011211
      dx2y2   :     0.006113
      dxy     :     0.011557
      f0      :     0.000105  f :     0.002122
      f+1     :     0.000162
      f-1     :     0.000190
      f+2     :     0.000211
      f-2     :     0.001127
      f+3     :     0.000159
      f-3     :     0.000169
  2 H s       :     0.820259  s :     0.820259
      pz      :     0.008281  p :     0.021731
      px      :     0.007791
      py      :     0.005659
  3 H s       :     0.819913  s :     0.819913
      pz      :     0.006899  p :     0.021731
      px      :     0.007344
      py      :     0.007488
  4 H s       :     0.818376  s :     0.818376
      pz      :     0.006810  p :     0.021788
      px      :     0.007418
      py      :     0.007560
  5 H s       :     0.663353  s :     0.663353
      pz      :     0.009494  p :     0.039286
      px      :     0.012802
      py      :     0.016990
  6 H s       :     0.656779  s :     0.656779
      pz      :     0.019420  p :     0.046452
      px      :     0.011845
      py      :     0.015187
  7 H s       :     0.656219  s :     0.656219
      pz      :     0.017030  p :     0.046723
      px      :     0.020804
      py      :     0.008889
  8 Pbs       :     3.926629  s :     3.926629
      pz      :     2.377023  p :     7.064284
      px      :     2.339565
      py      :     2.347696
      dz2     :     2.031053  d :    10.156771
      dxz     :     2.031857
      dyz     :     2.031115
      dx2y2   :     2.029563
      dxy     :     2.033183
      f0      :     0.013824  f :     0.073950
      f+1     :     0.009899
      f-1     :     0.011583
      f+2     :     0.007860
      f-2     :     0.005466
      f+3     :     0.013124
      f-3     :     0.012195
  9 Cls       :     5.953450  s :     5.953450
      pz      :     3.877468  p :    11.538795
      px      :     3.729108
      py      :     3.932219
      dz2     :     0.005067  d :     0.023587
      dxz     :     0.004861
      dyz     :     0.002082
      dx2y2   :     0.007802
      dxy     :     0.003775
      f0      :     0.000076  f :     0.001066
      f+1     :     0.000203
      f-1     :     0.000098
      f+2     :     0.000164
      f-2     :     0.000066
      f+3     :     0.000279
      f-3     :     0.000180
 10 Cls       :     5.954108  s :     5.954108
      pz      :     3.933681  p :    11.544937
      px      :     3.859148
      py      :     3.752108
      dz2     :     0.003077  d :     0.022610
      dxz     :     0.003204
      dyz     :     0.002711
      dx2y2   :     0.007766
      dxy     :     0.005853
      f0      :     0.000117  f :     0.000992
      f+1     :     0.000067
      f-1     :     0.000155
      f+2     :     0.000127
      f-2     :     0.000077
      f+3     :     0.000290
      f-3     :     0.000159
 11 Cls       :     5.952983  s :     5.952983
      pz      :     3.744420  p :    11.547490
      px      :     3.936868
      py      :     3.866202
      dz2     :     0.009160  d :     0.021106
      dxz     :     0.002542
      dyz     :     0.005752
      dx2y2   :     0.001922
      dxy     :     0.001731
      f0      :     0.000288  f :     0.000950
      f+1     :     0.000122
      f-1     :     0.000323
      f+2     :     0.000080
      f-2     :     0.000062
      f+3     :     0.000049
      f-3     :     0.000027


                     *******************************
                     * LOEWDIN POPULATION ANALYSIS *
                     *******************************

----------------------
LOEWDIN ATOMIC CHARGES
----------------------
   0 C :   -0.273774
   1 N :    0.064747
   2 H :    0.125335
   3 H :    0.125578
   4 H :    0.126593
   5 H :    0.175998
   6 H :    0.146133
   7 H :    0.144376
   8 Pb:   -0.112497
   9 Cl:   -0.161657
  10 Cl:   -0.179698
  11 Cl:   -0.181134

-------------------------------
LOEWDIN REDUCED ORBITAL CHARGES
-------------------------------
  0 C s       :     2.853055  s :     2.853055
      pz      :     1.032182  p :     3.080324
      px      :     1.042160
      py      :     1.005982
      dz2     :     0.028829  d :     0.303335
      dxz     :     0.079178
      dyz     :     0.081829
      dx2y2   :     0.032620
      dxy     :     0.080880
      f0      :     0.005242  f :     0.037061
      f+1     :     0.003953
      f-1     :     0.005718
      f+2     :     0.004385
      f-2     :     0.007022
      f+3     :     0.004897
      f-3     :     0.005843
  1 N s       :     3.001935  s :     3.001935
      pz      :     1.253683  p :     3.763075
      px      :     1.257266
      py      :     1.252126
      dz2     :     0.017568  d :     0.160706
      dxz     :     0.042549
      dyz     :     0.040517
      dx2y2   :     0.019222
      dxy     :     0.040850
      f0      :     0.001449  f :     0.009537
      f+1     :     0.001134
      f-1     :     0.001430
      f+2     :     0.001031
      f-2     :     0.001738
      f+3     :     0.001246
      f-3     :     0.001508
  2 H s       :     0.812451  s :     0.812451
      pz      :     0.022829  p :     0.062213
      px      :     0.021699
      py      :     0.017686
  3 H s       :     0.812155  s :     0.812155
      pz      :     0.019372  p :     0.062267
      px      :     0.022300
      py      :     0.020595
  4 H s       :     0.811066  s :     0.811066
      pz      :     0.020840  p :     0.062341
      px      :     0.020767
      py      :     0.020734
  5 H s       :     0.706958  s :     0.706958
      pz      :     0.031766  p :     0.117044
      px      :     0.038129
      py      :     0.047149
  6 H s       :     0.711331  s :     0.711331
      pz      :     0.057181  p :     0.142537
      px      :     0.039365
      py      :     0.045991
  7 H s       :     0.711803  s :     0.711803
      pz      :     0.052312  p :     0.143821
      px      :     0.062466
      py      :     0.029043
  8 Pbs       :     3.685430  s :     3.685430
      pz      :     2.536179  p :     7.539753
      px      :     2.504822
      py      :     2.498753
      dz2     :     2.153047  d :    10.664084
      dxz     :     2.107683
      dyz     :     2.120822
      dx2y2   :     2.154349
      dxy     :     2.128183
      f0      :     0.039000  f :     0.223230
      f+1     :     0.028123
      f-1     :     0.041708
      f+2     :     0.022127
      f-2     :     0.013624
      f+3     :     0.047921
      f-3     :     0.030728
  9 Cls       :     5.727020  s :     5.727020
      pz      :     3.812141  p :    11.387885
      px      :     3.705376
      py      :     3.870368
      dz2     :     0.010855  d :     0.044130
      dxz     :     0.005443
      dyz     :     0.003503
      dx2y2   :     0.018720
      dxy     :     0.005609
      f0      :     0.000211  f :     0.002621
      f+1     :     0.000595
      f-1     :     0.000278
      f+2     :     0.000268
      f-2     :     0.000105
      f+3     :     0.000790
      f-3     :     0.000375
 10 Cls       :     5.736141  s :     5.736141
      pz      :     3.872483  p :    11.399308
      px      :     3.796831
      py      :     3.729993
      dz2     :     0.006535  d :     0.041837
      dxz     :     0.005131
      dyz     :     0.003766
      dx2y2   :     0.016532
      dxy     :     0.009873
      f0      :     0.000208  f :     0.002413
      f+1     :     0.000111
      f-1     :     0.000435
      f+2     :     0.000351
      f-2     :     0.000112
      f+3     :     0.000858
      f-3     :     0.000338
 11 Cls       :     5.735486  s :     5.735486
      pz      :     3.719405  p :    11.404541
      px      :     3.878769
      py      :     3.806367
      dz2     :     0.022651  d :     0.038854
      dxz     :     0.002565
      dyz     :     0.009443
      dx2y2   :     0.002222
      dxy     :     0.001973
      f0      :     0.000899  f :     0.002253
      f+1     :     0.000150
      f-1     :     0.000889
      f+2     :     0.000120
      f-2     :     0.000068
      f+3     :     0.000090
      f-3     :     0.000036


                      *****************************
                      * MAYER POPULATION ANALYSIS *
                      *****************************

  NA   - Mulliken gross atomic population
  ZA   - Total nuclear charge
  QA   - Mulliken gross atomic charge
  VA   - Mayer's total valence
  BVA  - Mayer's bonded valence
  FA   - Mayer's free valence

  ATOM       NA         ZA         QA         VA         BVA        FA
  0 C      6.2636     6.0000    -0.2636     3.8446     3.8446    -0.0000
  1 N      7.3200     7.0000    -0.3200     3.3109     3.3109    -0.0000
  2 H      0.8420     1.0000     0.1580     0.9617     0.9617     0.0000
  3 H      0.8416     1.0000     0.1584     0.9626     0.9626    -0.0000
  4 H      0.8402     1.0000     0.1598     0.9646     0.9646    -0.0000
  5 H      0.7026     1.0000     0.2974     0.9510     0.9510    -0.0000
  6 H      0.7032     1.0000     0.2968     0.9616     0.9616     0.0000
  7 H      0.7029     1.0000     0.2971     0.9626     0.9626     0.0000
  8 Pb    21.2216    22.0000     0.7784     2.0058     2.0058     0.0000
  9 Cl    17.5169    17.0000    -0.5169     0.8233     0.8233     0.0000
 10 Cl    17.5226    17.0000    -0.5226     0.8153     0.8153     0.0000
 11 Cl    17.5225    17.0000    -0.5225     0.8126     0.8126     0.0000

  Mayer bond orders larger than 0.1
B(  0-C ,  1-N ) :   0.9020 B(  0-C ,  2-H ) :   0.9703 B(  0-C ,  3-H ) :   0.9696 
B(  0-C ,  4-H ) :   0.9703 B(  1-N ,  5-H ) :   0.8348 B(  1-N ,  6-H ) :   0.7990 
B(  1-N ,  7-H ) :   0.7978 B(  5-H , 11-Cl) :   0.1093 B(  6-H ,  9-Cl) :   0.1639 
B(  7-H , 10-Cl) :   0.1692 B(  8-Pb,  9-Cl) :   0.6522 B(  8-Pb, 10-Cl) :   0.6383 
B(  8-Pb, 11-Cl) :   0.6867 

-------
TIMINGS
-------

Total SCF time: 0 days 0 hours 4 min 38 sec 

Total time                  ....     278.318 sec
Sum of individual times     ....     257.013 sec  ( 92.3%)

Fock matrix formation       ....     251.082 sec  ( 90.2%)
  Coulomb formation         ....     193.803 sec  ( 77.2% of F)
  Split-RI-J                ....      16.728 sec  (  6.7% of F)
  Chain of spheres X        ....     197.328 sec  ( 78.6% of F)
  COS-X 1 center corr.      ....       0.000 sec  (  0.0% of F)
  XC integration            ....      56.263 sec  ( 22.4% of F)
    Basis function eval.    ....      27.188 sec  ( 48.3% of XC)
    Density eval.           ....      11.371 sec  ( 20.2% of XC)
    XC-Functional eval.     ....       2.805 sec  (  5.0% of XC)
    XC-Potential eval.      ....      13.913 sec  ( 24.7% of XC)
Diagonalization             ....       0.517 sec  (  0.2%)
Density matrix formation    ....       0.035 sec  (  0.0%)
Population analysis         ....       0.069 sec  (  0.0%)
Initial guess               ....       0.116 sec  (  0.0%)
Orbital Transformation      ....       0.000 sec  (  0.0%)
Orbital Orthonormalization  ....       0.113 sec  (  0.0%)
DIIS solution               ....       0.128 sec  (  0.0%)
SOSCF solution              ....       0.055 sec  (  0.0%)
Grid generation             ....       5.012 sec  (  1.8%)

------------------------------------------------------------------------------
                              ORCA MP2 CALCULATION
------------------------------------------------------------------------------


----------------------
RI-MP2 ENERGY+GRADIENT
----------------------
Dimension of the basis                    ...  259
Memory devoted to MP2                     ... 1000 MB   
Data format for buffers                   ... DOUBLE
Compression type for matrix containers    ... UNCOMPRESSED
Overall scaling of the MP2 energy         ...   2.700e-01 Eh
Calculating two index integrals           ... done (    0.012 sec)
Cholesky decomposition of the V-matrix    ... done
Cholesky decomposition of V**-1           ... done (    0.023 sec)

-----------------
RI-TRANSFORMATION (AUX index driven)
-----------------

Dimension of the orbital-basis         ... 259
Dimension of the aux-basis             ... 493
Transformation of internal MOs         ...    0-  45
Transformation of internal/external MOs...    0-  45 to   46- 258
Number Format for Storage              ... Double (8 Byte)
Integral mode                          ... Direct

First Phase: integral generation and transformation of MO indices
  Aux angular momentum 0               ... done (    0.370 sec)
  Aux angular momentum 1               ... done (    0.301 sec)
  Aux angular momentum 2               ... done (    0.368 sec)
  Aux angular momentum 3               ... done (    0.219 sec)
  Aux angular momentum 4               ... done (    0.195 sec)
Closing buffer VIJ ( 0.00 GB; CompressionRatio= 1.95)
Closing buffer VIA ( 0.04 GB; CompressionRatio= 1.00)
  Phase 1 completed in     1.554 sec
Second Phase: sorting and transformation of aux index

IJ-Transformation
Memory available                       ... 990 MB 
Max. # MO pairs treated in a batch     ... 46    
# of internal orbitals                 ... 46
# batches for internal orbitals        ... 1
Closing buffer IJV ( 0.00 GB; CompressionRatio= 1.00)
(ij|v) transformation done in     0.087 sec

IA-Transformation
Memory available                       ... 990 MB 
Max. # MO pairs treated in a batch     ... 46    
# of internal orbitals                 ... 46
# batches for internal orbitals        ... 1
Closing buffer IAV ( 0.04 GB; CompressionRatio= 1.00)
(ia|v) transformation done in     0.354 sec

  Phase 2 completed in     0.464 sec
RI-Integral transformation completed in     2.018 sec
Opening buffers                              ... done

Starting loop over batches of integrals:

Operator 0  - window                       ... (  0- 45)x( 46-258)
Operator 0  - Memory available             ...  1000 MB
Operator 0  - Memory needed per MO         ...   1.6 MB
Operator 0  - Number of orbitals per batch ... 46
Operator 0  - Number of batches            ... 1

OPERATOR  0   PASS   0:  MOs     0 ...   45
  Reading integrals       ... ok
  Internal MO   2
  Internal MO   5
  Internal MO   8
  Internal MO  11
  Internal MO  14
  Internal MO  17
  Internal MO  20
  Internal MO  23
  Internal MO  26
  Internal MO  29
  Internal MO  32
  Internal MO  35
  Internal MO  38
  Internal MO  41
  Internal MO  44
Closing buffer GIPV ( 0.04 GB; CompressionRatio= 1.00)
Time spent in pair loops =    43.677 sec

-----------------------------------------------
 RI-MP2 CORRELATION ENERGY:     -0.582235778 Eh
-----------------------------------------------


---------------------
MP2 DENSITY FORMATION
---------------------

Completing the external part of the density      ... done
Storing the unrelaxed density                    ... done

Calculating the xc-kernel                        ... done
Calculating G(D)                                 ... done
Completing the Lagrangian                        ... done
Solving the Z-vector equations                   ... 

------------------------------------------------------------------------------
                           ORCA CP-SCF CALCULATION
------------------------------------------------------------------------------

Input orbitals are from        ... PbMACl3_mp2_md2_15.orca.gbw
Input Perturbation             ... PbMACl3_mp2_md2_15.orca.pin.tmp
Wavefunction output            ... PbMACl3_mp2_md2_15.orca.pout.tmp
Perturbation mode              ... Real perturbation
Solver                         ... DIIS
   MaxDIIS                     ... 20
   Levelshift                  ...    3.000e-01 Eh
Max. number of iterations      ... 128
Convergence tolerance          ... 1.000e-08
Integral handling              ... Direct
COSX GridX                     ... 1
Number of perturbations        ... 1
Number of operators            ... 1
Orbital ranges used for CP-SCF:
 Operator 0:  Orbitals   0... 45  to  46...258
DFT calculation                         ... on
Exchange functional (SCF)               ... B88
Exchange functional (CP-SCF)            ... B88
   X-Alpha parameter    XAlpha (SCF)    ...  0.666667
   X-Alpha parameter    XAlpha (CP-SCF) ...  0.666667
   Becke's b parameter  XBeta (SCF)     ...  0.004200
   Becke's b parameter  XBeta (CP-SCF)  ...  0.004200
Correlation functional (SCF)            ... LYP
Correlation functional (CP-SCF)         ... LYP
 LDA part of GGA corr.  LDAOpt (SCF)    ... VWN-3
 LDA part of GGA corr.  LDAOpt (CP-SCF) ... VWN-3
Hybrid DFT                              ... on
   Exchange mixing (SCF)                ...  0.530
   Exchange mixing (CP-SCF)             ...  0.530
   GGA exch. scaling(SCF)               ...  0.470
   GGA exch. scaling (CP-SCF)           ...  0.470
   GGA corr. scaling (SCF)              ...  0.730
   GGA corr. scaling (CP-SCF)           ...  0.730
The RIJCOSX approximation is active
Variables per vector in CP-SCF ... 9798
Number of vectors sought       ... 1
Calculating the xc-kernel      ... done

Solving the CP-SCF equations by a DIIS algorithm

-----------------
CP-SCF ITERATIONS
-----------------
  Iteration   0: MaxR=  0.088930187
  Iteration   1: MaxR=  0.042397644
  Iteration   2: MaxR=  0.011909842
  Iteration   3: MaxR=  0.004740920
  Iteration   4: MaxR=  0.002082686
  Iteration   5: MaxR=  0.000797663
  Iteration   6: MaxR=  0.000317144
  Iteration   7: MaxR=  0.000093783
  Iteration   8: MaxR=  0.000034265
  Iteration   9: MaxR=  0.000009152
  Iteration  10: MaxR=  0.000003295
  Iteration  11: MaxR=  0.000001200
  Iteration  12: MaxR=  0.000000540
  Iteration  13: MaxR=  0.000000158
  Iteration  14: MaxR=  0.000000056
  Iteration  15: MaxR=  0.000000021
  Iteration  16: MaxR=  0.000000008
                              *** THE CP-SCF HAS CONVERGED *** 
done
Finalizing the relaxed density                   ... done
Transforming P to the AO basis                   ... done
Storing the relaxed density                      ... done

------------------------------------
ENERGY WEIGHTED DENSITY FINALIZATION
------------------------------------

Gathering the parts of the W-matrix              ... done
Forming the Z-density                            ... done
Transforming Z to the AO basis                   ... done
Calculating G(Z)                                 ... done
Finalizing the W-matrix                          ... done
Transforming W to the AO basis and storing       ... done
Entering the RIJONX and RIJCOSX sections
Starting the three-index derivative integrals:
Operator 0  - Memory available             ...  1000 MB
Operator 0  - Memory needed per MO         ...   1.0 MB
Operator 0  - Number of orbitals per batch ... 46
Operator 0  - Number of batches            ... 1

OPERATOR  0   PASS   0:  MOs     0 ...   45

----------------------------------
MP2 DERIVATIVE INTEGRAL GENERATION
----------------------------------


Input Correlated Electron Density   ... PbMACl3_mp2_md2_15.orca.pmp2re
Input Energy Weighted Density       ... PbMACl3_mp2_md2_15.orca.wmp2.tmp
Input SCF Electron Density          ... PbMACl3_mp2_md2_15.orca.scfp.tmp

One-Electron Terms    ...
  ECP gradient                                           ... One-Electron Terms done

-----------------------------------------------------------
MP2 COSX Grid Generation
-----------------------------------------------------------

General Integration Accuracy     IntAcc      ...  4.340
Radial Grid Type                 RadialGrid  ... Gauss-Chebyshev
Angular Grid (max. acc.)         AngularGrid ... Lebedev-302
Angular grid pruning method      GridPruning ... 3 (G Style)
Weight generation scheme         WeightScheme... Becke
Basis function cutoff            BFCut       ...    1.0000e-11
Integration weight cutoff        WCut        ...    1.0000e-14
Grids for H and He will be reduced by one unit

# of grid points (after initial pruning)     ...  57718 (   0.0 sec)
# of grid points (after weights+screening)   ...  54252 (   0.1 sec)
nearest neighbour list constructed           ...    0.0 sec
Grid point re-assignment to atoms done       ...    0.0 sec
Grid point division into batches done        ...    0.2 sec
Reduced shell lists constructed in    1.5 sec

Total number of grid points                  ...    54252
Total number of batches                      ...      852
Average number of points per batch           ...       63
Average number of grid points per atom       ...     4521
Average number of shells per batch           ...    58.15 (57.57%)
Average number of basis functions per batch  ...   154.75 (59.75%)
Average number of large shells per batch     ...    44.29 (76.17%)
Average number of large basis fcns per batch ...   114.82 (74.20%)
Maximum spatial batch extension              ...  40.43, 36.77, 32.17 au
Average spatial batch extension              ...   3.08,  3.08,  3.09 au

Overlap Fitting                  UseSFitting ... on
Two electron COSX terms .... 
Integration Timings:
Total Time                  =    84.3 sec
Basis fcn evaluation        =     0.7 sec
Density evaluation          =     0.9 sec
Integral evaluation         =    81.0 sec
K(P) evaluation             =     0.7 sec
                          .... COSX two electron terms done
COSX two-electron contribution to the gradient
     0:    -0.018962    -0.022904    -0.020116
     1:     0.059091     0.069728     0.042960
     2:     0.100218    -0.081715     0.107418
     3:    -0.103693     0.097696     0.089350
     4:     0.095911     0.099790    -0.097042
     5:    -0.113170    -0.115021     0.098561
     6:     0.090066    -0.112877    -0.096541
     7:    -0.106212     0.067948    -0.118239
     8:    -0.027072    -0.029395    -0.043933
     9:     0.065938     0.003830    -0.025154
    10:    -0.037365     0.058079    -0.002102
    11:    -0.004768    -0.035721     0.065094
Exchange-correlation gradient    ... done
Dispersion correction            ... 
Entering the calculation of the dispersion correction...

Checking the input atom types...

Done
done

                *********************************************
                * UNRELAXED MP2 DENSITY POPULATION ANALYSIS *
                *********************************************

------------------------------------------------------------------------------
                           ORCA POPULATION ANALYSIS
------------------------------------------------------------------------------
Input electron density              ... PbMACl3_mp2_md2_15.orca.pmp2ur
BaseName (.gbw .S,...)              ... PbMACl3_mp2_md2_15.orca

                    ********************************
                    * MULLIKEN POPULATION ANALYSIS *
                    ********************************

-----------------------
MULLIKEN ATOMIC CHARGES
-----------------------
   0 C :   -0.268011
   1 N :   -0.319099
   2 H :    0.159047
   3 H :    0.159367
   4 H :    0.160837
   5 H :    0.296306
   6 H :    0.295340
   7 H :    0.295632
   8 Pb:    0.763703
   9 Cl:   -0.510596
  10 Cl:   -0.516338
  11 Cl:   -0.516189
Sum of atomic charges:   -0.0000000

--------------------------------
MULLIKEN REDUCED ORBITAL CHARGES
--------------------------------
  0 C s       :     3.281464  s :     3.281464
      pz      :     0.976976  p :     2.901315
      px      :     0.989182
      py      :     0.935157
      dz2     :     0.009030  d :     0.077948
      dxz     :     0.019903
      dyz     :     0.019495
      dx2y2   :     0.009640
      dxy     :     0.019880
      f0      :     0.000517  f :     0.007284
      f+1     :     0.000682
      f-1     :     0.000910
      f+2     :     0.000944
      f-2     :     0.002770
      f+3     :     0.000680
      f-3     :     0.000780
  1 N s       :     3.431347  s :     3.431347
      pz      :     1.274580  p :     3.826734
      px      :     1.282568
      py      :     1.269586
      dz2     :     0.008044  d :     0.057847
      dxz     :     0.014211
      dyz     :     0.013399
      dx2y2   :     0.008467
      dxy     :     0.013726
      f0      :     0.000251  f :     0.003171
      f+1     :     0.000313
      f-1     :     0.000344
      f+2     :     0.000368
      f-2     :     0.001268
      f+3     :     0.000308
      f-3     :     0.000319
  2 H s       :     0.818210  s :     0.818210
      pz      :     0.008606  p :     0.022742
      px      :     0.008119
      py      :     0.006017
  3 H s       :     0.817891  s :     0.817891
      pz      :     0.007236  p :     0.022742
      px      :     0.007686
      py      :     0.007820
  4 H s       :     0.816370  s :     0.816370
      pz      :     0.007155  p :     0.022793
      px      :     0.007747
      py      :     0.007891
  5 H s       :     0.663794  s :     0.663794
      pz      :     0.009705  p :     0.039901
      px      :     0.012995
      py      :     0.017201
  6 H s       :     0.657551  s :     0.657551
      pz      :     0.019662  p :     0.047109
      px      :     0.012054
      py      :     0.015393
  7 H s       :     0.656989  s :     0.656989
      pz      :     0.017217  p :     0.047379
      px      :     0.021019
      py      :     0.009143
  8 Pbs       :     3.907968  s :     3.907968
      pz      :     2.384848  p :     7.089231
      px      :     2.348119
      py      :     2.356264
      dz2     :     2.025565  d :    10.129017
      dxz     :     2.026351
      dyz     :     2.025538
      dx2y2   :     2.023966
      dxy     :     2.027596
      f0      :     0.018988  f :     0.110081
      f+1     :     0.015093
      f-1     :     0.016650
      f+2     :     0.013083
      f-2     :     0.010660
      f+3     :     0.018172
      f-3     :     0.017436
  9 Cls       :     5.948891  s :     5.948891
      pz      :     3.862656  p :    11.495039
      px      :     3.714784
      py      :     3.917600
      dz2     :     0.012926  d :     0.062820
      dxz     :     0.012760
      dyz     :     0.009940
      dx2y2   :     0.015548
      dxy     :     0.011647
      f0      :     0.000474  f :     0.003845
      f+1     :     0.000608
      f-1     :     0.000486
      f+2     :     0.000561
      f-2     :     0.000461
      f+3     :     0.000674
      f-3     :     0.000582
 10 Cls       :     5.949554  s :     5.949554
      pz      :     3.919074  p :    11.501189
      px      :     3.844394
      py      :     3.737720
      dz2     :     0.010873  d :     0.061832
      dxz     :     0.011075
      dyz     :     0.010576
      dx2y2   :     0.015630
      dxy     :     0.013678
      f0      :     0.000505  f :     0.003763
      f+1     :     0.000453
      f-1     :     0.000542
      f+2     :     0.000528
      f-2     :     0.000471
      f+3     :     0.000695
      f-3     :     0.000569
 11 Cls       :     5.948409  s :     5.948409
      pz      :     3.730097  p :    11.503946
      px      :     3.922353
      py      :     3.851496
      dz2     :     0.016928  d :     0.060137
      dxz     :     0.010380
      dyz     :     0.013565
      dx2y2   :     0.009726
      dxy     :     0.009537
      f0      :     0.000690  f :     0.003696
      f+1     :     0.000521
      f-1     :     0.000725
      f+2     :     0.000471
      f-2     :     0.000453
      f+3     :     0.000429
      f-3     :     0.000406


                     *******************************
                     * LOEWDIN POPULATION ANALYSIS *
                     *******************************

----------------------
LOEWDIN ATOMIC CHARGES
----------------------
   0 C :   -0.276801
   1 N :    0.063855
   2 H :    0.126072
   3 H :    0.126308
   4 H :    0.127326
   5 H :    0.175406
   6 H :    0.145523
   7 H :    0.143783
   8 Pb:   -0.122190
   9 Cl:   -0.157359
  10 Cl:   -0.175278
  11 Cl:   -0.176644

-------------------------------
LOEWDIN REDUCED ORBITAL CHARGES
-------------------------------
  0 C s       :     2.852452  s :     2.852452
      pz      :     1.029802  p :     3.073267
      px      :     1.039704
      py      :     1.003761
      dz2     :     0.030626  d :     0.312259
      dxz     :     0.080990
      dyz     :     0.083600
      dx2y2   :     0.034387
      dxy     :     0.082656
      f0      :     0.005470  f :     0.038823
      f+1     :     0.004168
      f-1     :     0.005927
      f+2     :     0.004598
      f-2     :     0.007482
      f+3     :     0.005126
      f-3     :     0.006053
  1 N s       :     3.001438  s :     3.001438
      pz      :     1.249742  p :     3.751252
      px      :     1.253370
      py      :     1.248140
      dz2     :     0.019649  d :     0.172549
      dxz     :     0.045112
      dyz     :     0.043083
      dx2y2   :     0.021309
      dxy     :     0.043397
      f0      :     0.001632  f :     0.010906
      f+1     :     0.001314
      f-1     :     0.001606
      f+2     :     0.001210
      f-2     :     0.002029
      f+3     :     0.001431
      f-3     :     0.001684
  2 H s       :     0.809873  s :     0.809873
      pz      :     0.023480  p :     0.064056
      px      :     0.022318
      py      :     0.018257
  3 H s       :     0.809585  s :     0.809585
      pz      :     0.019952  p :     0.064107
      px      :     0.022944
      py      :     0.021211
  4 H s       :     0.808504  s :     0.808504
      pz      :     0.021455  p :     0.064170
      px      :     0.021364
      py      :     0.021352
  5 H s       :     0.706076  s :     0.706076
      pz      :     0.032225  p :     0.118517
      px      :     0.038621
      py      :     0.047671
  6 H s       :     0.710573  s :     0.710573
      pz      :     0.057597  p :     0.143904
      px      :     0.039822
      py      :     0.046484
  7 H s       :     0.711040  s :     0.711040
      pz      :     0.052800  p :     0.145177
      px      :     0.062890
      py      :     0.029487
  8 Pbs       :     3.669171  s :     3.669171
      pz      :     2.542420  p :     7.560103
      px      :     2.511832
      py      :     2.505851
      dz2     :     2.147053  d :    10.633802
      dxz     :     2.101705
      dyz     :     2.114732
      dx2y2   :     2.148240
      dxy     :     2.122072
      f0      :     0.044102  f :     0.259114
      f+1     :     0.033307
      f-1     :     0.046696
      f+2     :     0.027334
      f-2     :     0.018868
      f+3     :     0.052862
      f-3     :     0.035944
  9 Cls       :     5.722692  s :     5.722692
      pz      :     3.797907  p :    11.345723
      px      :     3.691699
      py      :     3.856118
      dz2     :     0.018793  d :     0.083467
      dxz     :     0.013328
      dyz     :     0.011366
      dx2y2   :     0.026564
      dxy     :     0.013415
      f0      :     0.000617  f :     0.005476
      f+1     :     0.001013
      f-1     :     0.000671
      f+2     :     0.000676
      f-2     :     0.000503
      f+3     :     0.001208
      f-3     :     0.000787
 10 Cls       :     5.731783  s :     5.731783
      pz      :     3.858232  p :    11.357088
      px      :     3.782703
      py      :     3.716154
      dz2     :     0.014392  d :     0.081156
      dxz     :     0.012991
      dyz     :     0.011574
      dx2y2   :     0.024411
      dxy     :     0.017789
      f0      :     0.000601  f :     0.005252
      f+1     :     0.000502
      f-1     :     0.000836
      f+2     :     0.000760
      f-2     :     0.000511
      f+3     :     0.001286
      f-3     :     0.000757
 11 Cls       :     5.731139  s :     5.731139
      pz      :     3.705664  p :    11.362422
      px      :     3.864587
      py      :     3.792171
      dz2     :     0.030470  d :     0.078011
      dxz     :     0.010347
      dyz     :     0.017344
      dx2y2   :     0.010060
      dxy     :     0.009790
      f0      :     0.001324  f :     0.005072
      f+1     :     0.000557
      f-1     :     0.001320
      f+2     :     0.000516
      f-2     :     0.000462
      f+3     :     0.000475
      f-3     :     0.000417


                      *****************************
                      * MAYER POPULATION ANALYSIS *
                      *****************************

  NA   - Mulliken gross atomic population
  ZA   - Total nuclear charge
  QA   - Mulliken gross atomic charge
  VA   - Mayer's total valence
  BVA  - Mayer's bonded valence
  FA   - Mayer's free valence

  ATOM       NA         ZA         QA         VA         BVA        FA
  0 C      6.2680     6.0000    -0.2680     3.8903     3.7753     0.1150
  1 N      7.3191     7.0000    -0.3191     3.3862     3.2396     0.1466
  2 H      0.8410     1.0000     0.1590     0.9644     0.9459     0.0185
  3 H      0.8406     1.0000     0.1594     0.9653     0.9468     0.0185
  4 H      0.8392     1.0000     0.1608     0.9673     0.9488     0.0185
  5 H      0.7037     1.0000     0.2963     0.9537     0.9330     0.0207
  6 H      0.7047     1.0000     0.2953     0.9645     0.9435     0.0210
  7 H      0.7044     1.0000     0.2956     0.9655     0.9446     0.0209
  8 Pb    21.2363    22.0000     0.7637     2.3120     1.9460     0.3661
  9 Cl    17.5106    17.0000    -0.5106     1.0583     0.7983     0.2600
 10 Cl    17.5163    17.0000    -0.5163     1.0507     0.7905     0.2602
 11 Cl    17.5162    17.0000    -0.5162     1.0480     0.7877     0.2603

  Mayer bond orders larger than 0.1
B(  0-C ,  1-N ) :   0.8795 B(  0-C ,  2-H ) :   0.9551 B(  0-C ,  3-H ) :   0.9545 
B(  0-C ,  4-H ) :   0.9551 B(  1-N ,  5-H ) :   0.8193 B(  1-N ,  6-H ) :   0.7841 
B(  1-N ,  7-H ) :   0.7830 B(  5-H , 11-Cl) :   0.1075 B(  6-H ,  9-Cl) :   0.1611 
B(  7-H , 10-Cl) :   0.1663 B(  8-Pb,  9-Cl) :   0.6325 B(  8-Pb, 10-Cl) :   0.6190 
B(  8-Pb, 11-Cl) :   0.6660 


                *******************************************
                * RELAXED MP2 DENSITY POPULATION ANALYSIS *
                *******************************************

------------------------------------------------------------------------------
                           ORCA POPULATION ANALYSIS
------------------------------------------------------------------------------
Input electron density              ... PbMACl3_mp2_md2_15.orca.pmp2re
BaseName (.gbw .S,...)              ... PbMACl3_mp2_md2_15.orca

                    ********************************
                    * MULLIKEN POPULATION ANALYSIS *
                    ********************************

-----------------------
MULLIKEN ATOMIC CHARGES
-----------------------
   0 C :   -0.285812
   1 N :   -0.313372
   2 H :    0.162587
   3 H :    0.162829
   4 H :    0.164288
   5 H :    0.290035
   6 H :    0.288418
   7 H :    0.289000
   8 Pb:    0.712082
   9 Cl:   -0.486263
  10 Cl:   -0.491948
  11 Cl:   -0.491843
Sum of atomic charges:   -0.0000000

--------------------------------
MULLIKEN REDUCED ORBITAL CHARGES
--------------------------------
  0 C s       :     3.284020  s :     3.284020
      pz      :     0.983505  p :     2.920937
      px      :     0.995361
      py      :     0.942070
      dz2     :     0.009211  d :     0.073735
      dxz     :     0.018351
      dyz     :     0.017970
      dx2y2   :     0.009830
      dxy     :     0.018373
      f0      :     0.000498  f :     0.007121
      f+1     :     0.000673
      f-1     :     0.000895
      f+2     :     0.000936
      f-2     :     0.002687
      f+3     :     0.000665
      f-3     :     0.000765
  1 N s       :     3.432269  s :     3.432269
      pz      :     1.272900  p :     3.821348
      px      :     1.281254
      py      :     1.267194
      dz2     :     0.008208  d :     0.056636
      dxz     :     0.013735
      dyz     :     0.012878
      dx2y2   :     0.008656
      dxy     :     0.013158
      f0      :     0.000248  f :     0.003119
      f+1     :     0.000312
      f-1     :     0.000345
      f+2     :     0.000367
      f-2     :     0.001223
      f+3     :     0.000304
      f-3     :     0.000320
  2 H s       :     0.815044  s :     0.815044
      pz      :     0.008427  p :     0.022369
      px      :     0.007971
      py      :     0.005971
  3 H s       :     0.814802  s :     0.814802
      pz      :     0.007137  p :     0.022369
      px      :     0.007547
      py      :     0.007685
  4 H s       :     0.813295  s :     0.813295
      pz      :     0.007047  p :     0.022417
      px      :     0.007621
      py      :     0.007749
  5 H s       :     0.670452  s :     0.670452
      pz      :     0.009625  p :     0.039513
      px      :     0.012871
      py      :     0.017017
  6 H s       :     0.664932  s :     0.664932
      pz      :     0.019482  p :     0.046650
      px      :     0.011930
      py      :     0.015238
  7 H s       :     0.664089  s :     0.664089
      pz      :     0.017024  p :     0.046911
      px      :     0.020775
      py      :     0.009111
  8 Pbs       :     3.923722  s :     3.923722
      pz      :     2.393746  p :     7.127413
      px      :     2.363533
      py      :     2.370134
      dz2     :     2.023818  d :    10.128356
      dxz     :     2.027672
      dyz     :     2.026027
      dx2y2   :     2.022650
      dxy     :     2.028189
      f0      :     0.018653  f :     0.108428
      f+1     :     0.014903
      f-1     :     0.016277
      f+2     :     0.012993
      f-2     :     0.010621
      f+3     :     0.017738
      f-3     :     0.017243
  9 Cls       :     5.949376  s :     5.949376
      pz      :     3.852412  p :    11.470070
      px      :     3.706305
      py      :     3.911353
      dz2     :     0.013043  d :     0.062952
      dxz     :     0.012679
      dyz     :     0.010067
      dx2y2   :     0.015413
      dxy     :     0.011750
      f0      :     0.000476  f :     0.003866
      f+1     :     0.000610
      f-1     :     0.000491
      f+2     :     0.000564
      f-2     :     0.000464
      f+3     :     0.000674
      f-3     :     0.000586
 10 Cls       :     5.950081  s :     5.950081
      pz      :     3.912654  p :    11.476129
      px      :     3.834450
      py      :     3.729026
      dz2     :     0.010798  d :     0.061955
      dxz     :     0.011242
      dyz     :     0.010655
      dx2y2   :     0.015793
      dxy     :     0.013467
      f0      :     0.000510  f :     0.003784
      f+1     :     0.000454
      f-1     :     0.000542
      f+2     :     0.000534
      f-2     :     0.000474
      f+3     :     0.000697
      f-3     :     0.000573
 11 Cls       :     5.949008  s :     5.949008
      pz      :     3.721244  p :    11.479026
      px      :     3.916320
      py      :     3.841462
      dz2     :     0.016997  d :     0.060098
      dxz     :     0.010423
      dyz     :     0.013344
      dx2y2   :     0.009744
      dxy     :     0.009590
      f0      :     0.000692  f :     0.003711
      f+1     :     0.000526
      f-1     :     0.000725
      f+2     :     0.000472
      f-2     :     0.000456
      f+3     :     0.000433
      f-3     :     0.000407


                     *******************************
                     * LOEWDIN POPULATION ANALYSIS *
                     *******************************

----------------------
LOEWDIN ATOMIC CHARGES
----------------------
   0 C :   -0.286830
   1 N :    0.059910
   2 H :    0.128027
   3 H :    0.128235
   4 H :    0.129233
   5 H :    0.174090
   6 H :    0.144009
   7 H :    0.142296
   8 Pb:   -0.147012
   9 Cl:   -0.145214
  10 Cl:   -0.162758
  11 Cl:   -0.163986

-------------------------------
LOEWDIN REDUCED ORBITAL CHARGES
-------------------------------
  0 C s       :     2.853787  s :     2.853787
      pz      :     1.034237  p :     3.086613
      px      :     1.044027
      py      :     1.008349
      dz2     :     0.030847  d :     0.307842
      dxz     :     0.079426
      dyz     :     0.081932
      dx2y2   :     0.034643
      dxy     :     0.080994
      f0      :     0.005451  f :     0.038588
      f+1     :     0.004147
      f-1     :     0.005908
      f+2     :     0.004564
      f-2     :     0.007380
      f+3     :     0.005096
      f-3     :     0.006041
  1 N s       :     3.003613  s :     3.003613
      pz      :     1.250205  p :     3.752684
      px      :     1.254095
      py      :     1.248384
      dz2     :     0.019901  d :     0.172808
      dxz     :     0.045059
      dyz     :     0.042978
      dx2y2   :     0.021597
      dxy     :     0.043272
      f0      :     0.001651  f :     0.010985
      f+1     :     0.001320
      f-1     :     0.001616
      f+2     :     0.001211
      f-2     :     0.002048
      f+3     :     0.001441
      f-3     :     0.001698
  2 H s       :     0.807835  s :     0.807835
      pz      :     0.023465  p :     0.064139
      px      :     0.022323
      py      :     0.018351
  3 H s       :     0.807577  s :     0.807577
      pz      :     0.019997  p :     0.064189
      px      :     0.022955
      py      :     0.021237
  4 H s       :     0.806530  s :     0.806530
      pz      :     0.021491  p :     0.064237
      px      :     0.021381
      py      :     0.021365
  5 H s       :     0.707475  s :     0.707475
      pz      :     0.032171  p :     0.118435
      px      :     0.038618
      py      :     0.047646
  6 H s       :     0.712243  s :     0.712243
      pz      :     0.057509  p :     0.143748
      px      :     0.039763
      py      :     0.046476
  7 H s       :     0.712697  s :     0.712697
      pz      :     0.052770  p :     0.145007
      px      :     0.062763
      py      :     0.029474
  8 Pbs       :     3.682875  s :     3.682875
      pz      :     2.545600  p :     7.580137
      px      :     2.521031
      py      :     2.513506
      dz2     :     2.143922  d :    10.627082
      dxz     :     2.101977
      dyz     :     2.113974
      dx2y2   :     2.145733
      dxy     :     2.121476
      f0      :     0.043696  f :     0.256917
      f+1     :     0.033005
      f-1     :     0.046278
      f+2     :     0.027182
      f-2     :     0.018724
      f+3     :     0.052387
      f-3     :     0.035645
  9 Cls       :     5.726041  s :     5.726041
      pz      :     3.790791  p :    11.328870
      px      :     3.686703
      py      :     3.851377
      dz2     :     0.019132  d :     0.084726
      dxz     :     0.013431
      dyz     :     0.011509
      dx2y2   :     0.027034
      dxy     :     0.013619
      f0      :     0.000628  f :     0.005577
      f+1     :     0.001031
      f-1     :     0.000678
      f+2     :     0.000690
      f-2     :     0.000507
      f+3     :     0.001241
      f-3     :     0.000801
 10 Cls       :     5.735095  s :     5.735095
      pz      :     3.853299  p :    11.340007
      px      :     3.775857
      py      :     3.710851
      dz2     :     0.014534  d :     0.082313
      dxz     :     0.013195
      dyz     :     0.011693
      dx2y2   :     0.024908
      dxy     :     0.017984
      f0      :     0.000607  f :     0.005343
      f+1     :     0.000507
      f-1     :     0.000854
      f+2     :     0.000768
      f-2     :     0.000516
      f+3     :     0.001323
      f-3     :     0.000768
 11 Cls       :     5.734433  s :     5.734433
      pz      :     3.700312  p :    11.345301
      px      :     3.859979
      py      :     3.785010
      dz2     :     0.031097  d :     0.079086
      dxz     :     0.010467
      dyz     :     0.017537
      dx2y2   :     0.010125
      dxy     :     0.009861
      f0      :     0.001350  f :     0.005166
      f+1     :     0.000567
      f-1     :     0.001362
      f+2     :     0.000522
      f-2     :     0.000467
      f+3     :     0.000478
      f-3     :     0.000419


                      *****************************
                      * MAYER POPULATION ANALYSIS *
                      *****************************

  NA   - Mulliken gross atomic population
  ZA   - Total nuclear charge
  QA   - Mulliken gross atomic charge
  VA   - Mayer's total valence
  BVA  - Mayer's bonded valence
  FA   - Mayer's free valence

  ATOM       NA         ZA         QA         VA         BVA        FA
  0 C      6.2858     6.0000    -0.2858     3.8922     3.7774     0.1147
  1 N      7.3134     7.0000    -0.3134     3.3945     3.2483     0.1462
  2 H      0.8374     1.0000     0.1626     0.9634     0.9450     0.0184
  3 H      0.8372     1.0000     0.1628     0.9644     0.9459     0.0185
  4 H      0.8357     1.0000     0.1643     0.9664     0.9480     0.0184
  5 H      0.7100     1.0000     0.2900     0.9602     0.9396     0.0206
  6 H      0.7116     1.0000     0.2884     0.9711     0.9502     0.0209
  7 H      0.7110     1.0000     0.2890     0.9716     0.9509     0.0208
  8 Pb    21.2879    22.0000     0.7121     2.3900     2.0292     0.3608
  9 Cl    17.4863    17.0000    -0.4863     1.1021     0.8434     0.2587
 10 Cl    17.4919    17.0000    -0.4919     1.0946     0.8357     0.2589
 11 Cl    17.4918    17.0000    -0.4918     1.0914     0.8325     0.2589

  Mayer bond orders larger than 0.1
B(  0-C ,  1-N ) :   0.8877 B(  0-C ,  2-H ) :   0.9523 B(  0-C ,  3-H ) :   0.9516 
B(  0-C ,  4-H ) :   0.9523 B(  1-N ,  5-H ) :   0.8160 B(  1-N ,  6-H ) :   0.7797 
B(  1-N ,  7-H ) :   0.7786 B(  5-H , 11-Cl) :   0.1168 B(  6-H ,  9-Cl) :   0.1718 
B(  7-H , 10-Cl) :   0.1771 B(  8-Pb,  9-Cl) :   0.6580 B(  8-Pb, 10-Cl) :   0.6443 
B(  8-Pb, 11-Cl) :   0.6940 


-------
TIMINGS
-------

Total time                :  464.822 sec
Integral trafo            :    2.028 sec (  0.4%)
I/O of integrals          :    0.128 sec (  0.0%)
K(i,j) Operators          :    5.815 sec (  1.3%)
T(i,j) pair energies      :    1.115 sec (  0.2%)
V-calculation             :    0.012 sec (  0.0%)
V**(-1/2)                 :    0.023 sec (  0.0%)
Gamma(ia|P)               :    5.282 sec (  1.1%)
Gamma-Trafo               :    0.757 sec (  0.2%)
D(virtual)                :    2.370 sec (  0.5%)
D(internal)               :    3.947 sec (  0.8%)
W(virtual)                :    4.728 sec (  1.0%)
W(internal)               :   13.813 sec (  3.0%)
L(virtual)                :    5.267 sec (  1.1%)
L(internal)               :    0.227 sec (  0.0%)
G(D)                      :   13.716 sec (  3.0%)
G(Z)                      :   13.732 sec (  3.0%)
Z-Vector Solution         :  287.218 sec ( 61.8%)
Z-Vector Solution         :  287.218 sec ( 61.8%)
3-Index Derivative 
+ Separable RIJ part      :    4.084 sec (  0.9%)
2-Index Derivative 
+ Separable RIJ part      :    0.025 sec (  0.0%)
Separable Gradient (COSX) :   99.009 sec ( 21.3%)


---------------------------------------
MP2 TOTAL ENERGY:    -1669.600994257 Eh
---------------------------------------

The final MP2 gradient
  0:  -0.00026054   0.00044370  -0.00054169
  1:   0.00112528   0.00306908  -0.01785092
  2:   0.00263710  -0.00219285   0.00299118
  3:  -0.00264586   0.00245179   0.00284176
  4:   0.00279262   0.00331032  -0.00202974
  5:  -0.01027678  -0.00843597   0.00051809
  6:  -0.00769181  -0.00889579  -0.00521874
  7:  -0.00179947  -0.00855466  -0.00720960
  8:   0.03527008   0.03833315   0.04269575
  9:  -0.02404213  -0.00222198   0.00448567
 10:   0.00735075  -0.01884292  -0.00101371
 11:  -0.00247874   0.00097887  -0.01946478

-----------------------------------
NORM OF THE MP2 GRADIENT:  0.082469
-----------------------------------

Entering the calculation of the dispersion correction...

Checking the input atom types...

Done


-------------------------------------------------------------------------------
                          DFT DISPERSION CORRECTION                            
                                                                               
                                DFTD3 V2.1  Rev 6                               
                          USING Becke-Johnson damping                          
-------------------------------------------------------------------------------
The B2PLYP functional is recognized
Active option DFTDOPT                   ...         4   

molecular C6(AA) [au] = 4842.781402 


            DFT-D V3
 parameters
 s6 scaling factor         :     0.6400 
 a1 scaling factor         :     0.3065 
 s8 scaling factor         :     0.9147 
 a2 scaling factor         :     5.0570 
 ad hoc parameters k1-k3   :    16.0000     1.3333    -4.0000 

 Edisp/kcal,au: -9.081495654778  -0.014472282988 
 E6   /kcal   :  -4.165375376 
 E8   /kcal   :  -4.916120279 
 % E8         :  54.133376987 

-------------------------   ----------------
Dispersion correction           -0.014472283
-------------------------   ----------------


-------------------------   --------------------
FINAL SINGLE POINT ENERGY     -1669.615466539739
-------------------------   --------------------


                            ***************************************
                            *     ORCA property calculations      *
                            ***************************************


  WARNING: The energy has been calculated at the MP2 level but the densities
           used in the property calculations are still SCF densities
           MP2 response densities have not been calculated 
           use %mp2 Density relaxed end
           or  %mp2 Density unrelaxed end

                                    ---------------------
                                    Active property flags
                                    ---------------------
   (+) Dipole Moment


------------------------------------------------------------------------------
                       ORCA ELECTRIC PROPERTIES CALCULATION
------------------------------------------------------------------------------

Dipole Moment Calculation                       ... on
Quadrupole Moment Calculation                   ... off
Polarizability Calculation                      ... off
GBWName                                         ... PbMACl3_mp2_md2_15.orca.gbw
Electron density file                           ... PbMACl3_mp2_md2_15.orca.scfp.tmp

-------------
DIPOLE MOMENT
-------------
                                X             Y             Z
Electronic contribution:    -55.20011     -69.45097     -74.33364
Nuclear contribution   :     56.06193      70.54751      75.29907
                        -----------------------------------------
Total Dipole Moment    :      0.86182       1.09654       0.96543
                        -----------------------------------------
Magnitude (a.u.)       :      1.69623
Magnitude (Debye)      :      4.31147


                         *** MP2 UNRELAXED DENSITY ***

------------------------------------------------------------------------------
                       ORCA ELECTRIC PROPERTIES CALCULATION
------------------------------------------------------------------------------

Dipole Moment Calculation                       ... on
Quadrupole Moment Calculation                   ... off
Polarizability Calculation                      ... off
GBWName                                         ... PbMACl3_mp2_md2_15.orca.gbw
Electron density file                           ... PbMACl3_mp2_md2_15.orca.pmp2ur

-------------
DIPOLE MOMENT
-------------
                                X             Y             Z
Electronic contribution:    -55.19899     -69.44944     -74.33033
Nuclear contribution   :     56.06193      70.54751      75.29907
                        -----------------------------------------
Total Dipole Moment    :      0.86295       1.09807       0.96875
                        -----------------------------------------
Magnitude (a.u.)       :      1.69968
Magnitude (Debye)      :      4.32024


                           *** MP2 RELAXED DENSITY ***

------------------------------------------------------------------------------
                       ORCA ELECTRIC PROPERTIES CALCULATION
------------------------------------------------------------------------------

Dipole Moment Calculation                       ... on
Quadrupole Moment Calculation                   ... off
Polarizability Calculation                      ... off
GBWName                                         ... PbMACl3_mp2_md2_15.orca.gbw
Electron density file                           ... PbMACl3_mp2_md2_15.orca.pmp2re

-------------
DIPOLE MOMENT
-------------
                                X             Y             Z
Electronic contribution:    -55.22978     -69.48596     -74.36701
Nuclear contribution   :     56.06193      70.54751      75.29907
                        -----------------------------------------
Total Dipole Moment    :      0.83215       1.06156       0.93207
                        -----------------------------------------
Magnitude (a.u.)       :      1.63955
Magnitude (Debye)      :      4.16740


Timings for individual modules:

Sum of individual times         ...      744.063 sec (=  12.401 min)
GTO integral calculation        ...        0.595 sec (=   0.010 min)   0.1 %
SCF iterations                  ...      278.484 sec (=   4.641 min)  37.4 %
MP2 module                      ...      464.984 sec (=   7.750 min)  62.5 %
                             ****ORCA TERMINATED NORMALLY****
TOTAL RUN TIME: 0 days 0 hours 12 minutes 24 seconds 562 msec
