
                                 *****************
                                 * O   R   C   A *
                                 *****************

           --- An Ab Initio, DFT and Semiempirical electronic structure package ---

                  #######################################################
                  #                        -***-                        #
                  #  Department of molecular theory and spectroscopy    #
                  #              Directorship: Frank Neese              #
                  # Max Planck Institute for Chemical Energy Conversion #
                  #                  D-45470 Muelheim/Ruhr              #
                  #                       Germany                       #
                  #                                                     #
                  #                  All rights reserved                #
                  #                        -***-                        #
                  #######################################################


                         Program Version 3.0.3 - RELEASE   -


 With contributions from (in alphabetic order):
   Ute Becker             : Parallelization
   Dmytro Bykov           : SCF Hessian
   Dmitry Ganyushin       : Spin-Orbit,Spin-Spin,Magnetic field MRCI
   Andreas Hansen         : Spin unrestricted coupled pair/coupled cluster methods
   Dimitrios Liakos       : Extrapolation schemes; parallel MDCI
   Robert Izsak           : Overlap fitted RIJCOSX, COSX-SCS-MP3
   Christian Kollmar      : KDIIS, OOCD, Brueckner-CCSD(T), CCSD density
   Simone Kossmann        : Meta GGA functionals, TD-DFT gradient, OOMP2, MP2 Hessian
   Taras Petrenko         : DFT Hessian,TD-DFT gradient, ASA and ECA modules, normal mode analysis, Resonance Raman, ABS, FL, XAS/XES, NRVS
   Christoph Reimann      : Effective Core Potentials
   Michael Roemelt        : Restricted open shell CIS
   Christoph Riplinger    : Improved optimizer, TS searches, QM/MM, DLPNO-CCSD
   Barbara Sandhoefer     : DKH picture change effects
   Igor Schapiro          : Molecular dynamics
   Kantharuban Sivalingam : CASSCF convergence, NEVPT2
   Boris Wezisla          : Elementary symmetry handling
   Frank Wennmohs         : Technical directorship


 We gratefully acknowledge several colleagues who have allowed us to
 interface, adapt or use parts of their codes:
   Stefan Grimme, W. Hujo, H. Kruse, T. Risthaus : VdW corrections, initial TS optimization,
                                                   DFT functionals, gCP
   Ed Valeev                                     : LibInt (2-el integral package), F12 methods
   Garnet Chan, S. Sharma, R. Olivares           : DMRG
   Ulf Ekstrom                                   : XCFun DFT Library
   Mihaly Kallay                                 : mrcc  (arbitrary order and MRCC methods)
   Andreas Klamt, Michael Diedenhofen            : otool_cosmo (COSMO solvation model)
   Frank Weinhold                                : gennbo (NPA and NBO analysis)
   Christopher J. Cramer and Donald G. Truhlar   : smd solvation model


 Your calculation uses the libint2 library for the computation of 2-el integrals
 For citations please refer to: http://libint.valeyev.net

 This ORCA versions uses:
   CBLAS   interface :  Fast vector & matrix operations
   LAPACKE interface :  Fast linear algebra routines
   SCALAPACK package :  Parallel linear algebra routines


Your calculation utilizes the basis: Ahlrichs-TZV
Cite in your paper:
H - Kr: A. Schaefer, H. Horn and R. Ahlrichs, J. Chem. Phys. 97, 2571 (1992).

The def2-TZV basis will be loaded
Cite in your paper:
 	F. Weigend, R. Ahlrichs, Phys. Chem. Chem. Phys. 2005, 7, 3297.

Your calculation utilizes the atom-pairwise dispersion correction
with the Becke-Johnson damping scheme (D3BJ)
Cite in your paper:
S.Grimme, S.Ehrlich, L.Goerigk, J Comput Chem, (2011), 32, 1456–1465 
S.Grimme, J.Antony, S.Ehrlich and H.Krieg, J.Chem.Phys., 132, (2010), 154104 
   

================================================================================
                                        WARNINGS
                       Please study these warnings very carefully!
================================================================================

WARNING: The RI method has been chosen with no auxiliary basis (AUX or GTOAUX in BASIS block)
        Standard TZV/J expansion basis used (GTOAUX=TZV_J)

Now building the actual basis set
cite the ECPs for Pb [SD(60,MDF)] as follows:
  B. Metz, H. Stoll, M. Dolg, J. Chem. Phys. 113, 2563 (2000).

ECP parameters for Pb [SD(60,MDF)] have been obtained from:
  pseudopotential library of the Stuttgart/Cologne group
  http://www.theochem.uni-stuttgart.de/pseudopotentials/

cite the ECP basis sets for Pb [DEF2-TZVP] as follows:
  F. Weigend, R. Ahlrichs; Phys. Chem. Chem. Phys. 7, 3297(2005).

ECP basis sets for Pb [DEF2-TZVP] have been obtained from:
  Turbomole basis set library
  ftp://ftp.chemie.uni-karlsruhe.de/pub/basen/



INFO   : the flag for use of LIBINT has been found!

================================================================================
                                       INPUT FILE
================================================================================
NAME = PbMACl3_mp2_md2_7.orca
|  1> ! RIJCOSX RI-B2PLYP D3BJ def2-TZVP ECP{def2-TZVP} TIGHTSCF Grid5 FinalGrid6 SlowConv MORead
|  2> %method
|  3>  RunTyp Gradient
|  4>  end
|  5> %maxcore 1000
|  6> %moinp "previous.gbw"
|  7> *xyz 0 1
|  8> C -0.394281 0.276013 -0.426662 
|  9> N -1.165380 -0.685592 -1.253010 
| 10> H 0.248796 -0.278576 0.260517 
| 11> H -1.090820 0.897444 0.140826 
| 12> H 0.215705 0.904875 -1.079130 
| 13> H -1.783150 -1.324970 -0.698370 
| 14> H -0.582260 -1.326300 -1.835140 
| 15> H -1.813140 -0.240924 -1.938260 
| 16> Pb -2.707690 -4.127050 -2.682500 
| 17> Cl -1.812880 -3.043980 -4.837020 
| 18> Cl -2.803490 1.096080 -2.976840 
| 19> Cl -4.821070 -3.137350 -1.600920 
| 20> *
| 21> 
| 22>                          ****END OF INPUT****
================================================================================

                     *******************************
                     * Energy+Gradient Calculation *
                     *******************************

---------------------------------
CARTESIAN COORDINATES (ANGSTROEM)
---------------------------------
  C     -0.394281    0.276013   -0.426662
  N     -1.165380   -0.685592   -1.253010
  H      0.248796   -0.278576    0.260517
  H     -1.090820    0.897444    0.140826
  H      0.215705    0.904875   -1.079130
  H     -1.783150   -1.324970   -0.698370
  H     -0.582260   -1.326300   -1.835140
  H     -1.813140   -0.240924   -1.938260
  Pb    -2.707690   -4.127050   -2.682500
  Cl    -1.812880   -3.043980   -4.837020
  Cl    -2.803490    1.096080   -2.976840
  Cl    -4.821070   -3.137350   -1.600920

----------------------------
CARTESIAN COORDINATES (A.U.)
----------------------------
  NO LB      ZA    FRAG    MASS        X           Y           Z
   0 C     6.0000    0    12.011         -0.745083109808605          0.521588979402006         -0.806274331751109
   1 N     7.0000    0    14.007         -2.202249041949148         -1.295581119607339         -2.367845743064668
   2 H     1.0000    0     1.008          0.470156303215072         -0.526432347483247          0.492305783230763
   3 H     1.0000    0     1.008         -2.061351061403979          1.695923380530824          0.266122572535594
   4 H     1.0000    0     1.008          0.407623375717484          1.709965935431992         -2.039260162898440
   5 H     1.0000    0     1.008         -3.369665155701680         -2.503830435661641         -1.319728040146585
   6 H     1.0000    0     1.008         -1.100311938736988         -2.506343771419756         -3.467912017404246
   7 H     1.0000    0     1.008         -3.426338042457978         -0.455280379088844         -3.662780576334205
   8 Pb   22.0000*   0   207.200  -5.116792555557233  -7.798994240999701  -5.069190354243758
   9 Cl   17.0000    0    35.453         -3.425846713663159         -5.752288557133611         -9.140643104299773
  10 Cl   17.0000    0    35.453         -5.297828319186890          2.071291020868405         -5.625412344502139
  11 Cl   17.0000    0    35.453         -9.110501972463728         -5.928732286257839         -3.025300362317210
* core charge reduced due to ECP

--------------------------------
INTERNAL COORDINATES (ANGSTROEM)
--------------------------------
 C      0   0   0   0.000000     0.000     0.000
 N      1   0   0   1.483957     0.000     0.000
 H      1   2   0   1.092397   109.099     0.000
 H      1   2   3   1.092422   109.061   240.173
 H      1   2   3   1.092367   109.305   120.114
 H      2   1   3   1.047888   114.015    60.210
 H      2   1   3   1.043749   114.711   299.789
 H      2   1   3   1.042540   114.361   179.708
 Pb     6   2   1   3.555728   109.802   197.726
 Cl     9   6   2   2.572097    92.586   348.388
 Cl     8   2   1   1.961382   162.272   359.710
 Cl     9   6   2   2.572100    71.081   229.161

---------------------------
INTERNAL COORDINATES (A.U.)
---------------------------
 C      0   0   0   0.000000     0.000     0.000
 N      1   0   0   2.804273     0.000     0.000
 H      1   2   0   2.064332   109.099     0.000
 H      1   2   3   2.064378   109.061   240.173
 H      1   2   3   2.064274   109.305   120.114
 H      2   1   3   1.980222   114.015    60.210
 H      2   1   3   1.972399   114.711   299.789
 H      2   1   3   1.970116   114.361   179.708
 Pb     6   2   1   6.719351   109.802   197.726
 Cl     9   6   2   4.860559    92.586   348.388
 Cl     8   2   1   3.706476   162.272   359.710
 Cl     9   6   2   4.860564    71.081   229.161

---------------------
BASIS SET INFORMATION
---------------------
There are 5 groups of distinct atoms

 Group   1 Type C   : 11s6p2d1f contracted to 5s3p2d1f pattern {62111/411/11/1}
 Group   2 Type N   : 11s6p2d1f contracted to 5s3p2d1f pattern {62111/411/11/1}
 Group   3 Type H   : 5s1p contracted to 3s1p pattern {311/1}
 Group   4 Type Pb  : 10s9p8d2f contracted to 6s5p3d2f pattern {421111/33111/611/11}
 Group   5 Type Cl  : 14s9p3d1f contracted to 5s5p2d1f pattern {73211/51111/21/1}

Atom   0C    basis set group =>   1
Atom   1N    basis set group =>   2
Atom   2H    basis set group =>   3
Atom   3H    basis set group =>   3
Atom   4H    basis set group =>   3
Atom   5H    basis set group =>   3
Atom   6H    basis set group =>   3
Atom   7H    basis set group =>   3
Atom   8Pb   basis set group =>   4
Atom   9Cl   basis set group =>   5
Atom  10Cl   basis set group =>   5
Atom  11Cl   basis set group =>   5
-------------------------------
AUXILIARY BASIS SET INFORMATION
-------------------------------
There are 5 groups of distinct atoms

 Group   1 Type C   : 12s5p4d2f1g contracted to 6s4p3d1f1g pattern {711111/2111/211/2/1}
 Group   2 Type N   : 12s5p4d2f1g contracted to 6s4p3d1f1g pattern {711111/2111/211/2/1}
 Group   3 Type H   : 5s2p1d contracted to 3s1p1d pattern {311/2/1}
 Group   4 Type Pb  : 31s12p8d6f3g contracted to 31s12p8d6f3g pattern {1111111111111111111111111111111/111111111111/11111111/111111/111}
 Group   5 Type Cl  : 14s5p5d2f1g contracted to 8s4p3d1f1g pattern {71111111/2111/311/2/1}

Atom   0C    basis set group =>   1
Atom   1N    basis set group =>   2
Atom   2H    basis set group =>   3
Atom   3H    basis set group =>   3
Atom   4H    basis set group =>   3
Atom   5H    basis set group =>   3
Atom   6H    basis set group =>   3
Atom   7H    basis set group =>   3
Atom   8Pb   basis set group =>   4
Atom   9Cl   basis set group =>   5
Atom  10Cl   basis set group =>   5
Atom  11Cl   basis set group =>   5

-------------------------
ECP PARAMETER INFORMATION
-------------------------

 Group 1, Type Pb ECP SD(60,MDF) (replacing 60 core electrons, lmax=5)

Atom   8Pb   ECP group =>   1


------------------------------------------------------------------------------
                           ORCA GTO INTEGRAL CALCULATION
                           -- RI-GTO INTEGRALS CHOSEN --
------------------------------------------------------------------------------

                         BASIS SET STATISTICS AND STARTUP INFO

Gaussian basis set:
 # of primitive gaussian shells          ...  186
 # of primitive gaussian functions       ...  420
 # of contracted shells                  ...  101
 # of contracted basis functions         ...  259
 Highest angular momentum                ...    3
 Maximum contraction depth               ...    7
Auxiliary gaussian basis set:
 # of primitive gaussian shells          ...  237
 # of primitive gaussian functions       ...  643
 # of contracted shells                  ...  171
 # of contracted aux-basis functions     ...  493
 Highest angular momentum                ...    4
 Maximum contraction depth               ...    7
Ratio of auxiliary to basis functions    ...  1.90
Integral package used                  ... LIBINT
 One Electron integrals                  
   ECP integrals                         ... done
 Ordering auxiliary basis shells         ... done
 Integral threshhold             Thresh  ...  2.500e-11
 Primitive cut-off               TCut    ...  2.500e-12
 Pre-screening matrix                    ... done
 Shell pair data                         ... 
 Ordering of the shell pairs             ... done (   0.001 sec) 4076 of 5151 pairs
 Determination of significant pairs      ... done (   0.000 sec)
 Creation of shell pair data             ... done (   0.002 sec)
 Storage of shell pair data              ... done (   0.001 sec)
 Shell pair data done in (   0.003 sec)
 Computing two index integrals           ... done
 Cholesky decomposition of the V-matrix  ... done


Timings:
 Total evaluation time                   ...   0.667 sec (  0.011 min)
 One electron matrix time                ...   0.305 sec (  0.005 min) = 45.7%
 Schwartz matrix evaluation time         ...   0.244 sec (  0.004 min) = 36.6%
 Two index repulsion integral time       ...   0.010 sec (  0.000 min) =  1.5%
 Cholesky decomposition of V             ...   0.077 sec (  0.001 min) = 11.5%
 Three index repulsion integral time     ...   0.000 sec (  0.000 min) =  0.0%

-------------------------------------------------------------------------------
                                 ORCA SCF
-------------------------------------------------------------------------------

------------
SCF SETTINGS
------------
Hamiltonian:
 Density Functional     Method          .... DFT(GTOs)
 Exchange Functional    Exchange        .... B88
   X-Alpha parameter    XAlpha          ....  0.666667
   Becke's b parameter  XBeta           ....  0.004200
 Correlation Functional Correlation     .... LYP
 LDA part of GGA corr.  LDAOpt          .... VWN-3
 Gradients option       PostSCFGGA      .... off
 Hybrid DFT is turned on
   Fraction HF Exchange ScalHFX         ....  0.530000
   Scaling of DF-GGA-X  ScalDFX         ....  0.470000
   Scaling of DF-GGA-C  ScalDFC         ....  0.730000
   Scaling of DF-LDA-C  ScalLDAC        ....  0.730000
   Perturbative correction              ....  0.270000
 RI-approximation to the Coulomb term is turned on
   Number of auxiliary basis functions  .... 493
   RIJ-COSX (HFX calculated with COS-X)).... on


General Settings:
 Integral files         IntName         .... PbMACl3_mp2_md2_7.orca
 Hartree-Fock type      HFTyp           .... RHF
 Total Charge           Charge          ....    0
 Multiplicity           Mult            ....    1
 Number of Electrons    NEL             ....   92
 Basis Dimension        Dim             ....  259
 Nuclear Repulsion      ENuc            ....    509.2159088346 Eh

Convergence Acceleration:
 DIIS                   CNVDIIS         .... on
   Start iteration      DIISMaxIt       ....     0
   Startup error        DIISStart       ....  0.200000
   # of expansion vecs  DIISMaxEq       ....     5
   Bias factor          DIISBfac        ....   1.050
   Max. coefficient     DIISMaxC        ....  10.000
 Newton-Raphson         CNVNR           .... off
 SOSCF                  CNVSOSCF        .... on
   Start iteration      SOSCFMaxIt      ....   150
   Startup grad/error   SOSCFStart      ....  0.001000
 Level Shifting         CNVShift        .... on
   Level shift para.    LevelShift      ....    0.2500
   Turn off err/grad.   ShiftErr        ....    0.0000
 Zerner damping         CNVZerner       .... off
 Static damping         CNVDamp         .... on
   Fraction old density DampFac         ....    0.8500
   Max. Damping (<1)    DampMax         ....    0.9800
   Min. Damping (>=0)   DampMin         ....    0.0000
   Turn off err/grad.   DampErr         ....    0.0300
 Fernandez-Rico         CNVRico         .... off

SCF Procedure:
 Maximum # iterations   MaxIter         ....   125
 SCF integral mode      SCFMode         .... Direct
   Integral package                     .... LIBINT
 Reset frequeny         DirectResetFreq ....    20
 Integral Threshold     Thresh          ....  2.500e-11 Eh
 Primitive CutOff       TCut            ....  2.500e-12 Eh

Convergence Tolerance:
 Convergence Check Mode ConvCheckMode   .... Total+1el-Energy
 Energy Change          TolE            ....  1.000e-08 Eh
 1-El. energy change                    ....  1.000e-05 Eh
 Orbital Gradient       TolG            ....  1.000e-05
 Orbital Rotation angle TolX            ....  1.000e-05
 DIIS Error             TolErr          ....  5.000e-07


Diagonalization of the overlap matrix:
Smallest eigenvalue                        ... 1.115e-03
Time for diagonalization                   ...    0.206 sec
Threshold for overlap eigenvalues          ... 1.000e-08
Number of eigenvalues below threshold      ... 0
Time for construction of square roots      ...    0.005 sec
Total time needed                          ...    0.212 sec

---------------------
INITIAL GUESS: MOREAD
---------------------
Guess MOs are being read from file: previous.gbw
Input geometry compatible with but different from current geometry
Input basis set matches current basis set (good)
MOs were renormalized
MOs were reorthogonalized (Schmidt)
                      ------------------
                      INITIAL GUESS DONE (   0.1 sec)
                      ------------------
-------------------
DFT GRID GENERATION
-------------------

General Integration Accuracy     IntAcc      ...  5.010
Radial Grid Type                 RadialGrid  ... Gauss-Chebyshev
Angular Grid (max. acc.)         AngularGrid ... Lebedev-434
Angular grid pruning method      GridPruning ... 3 (G Style)
Weight generation scheme         WeightScheme... Becke
Basis function cutoff            BFCut       ...    1.0000e-11
Integration weight cutoff        WCut        ...    1.0000e-14
Grids for H and He will be reduced by one unit

# of grid points (after initial pruning)     ... 115882 (   0.0 sec)
# of grid points (after weights+screening)   ... 109793 (   0.2 sec)
nearest neighbour list constructed           ...    0.0 sec
Grid point re-assignment to atoms done       ...    0.0 sec
Grid point division into batches done        ...    1.0 sec
Reduced shell lists constructed in    3.5 sec

Total number of grid points                  ...   109793
Total number of batches                      ...     1723
Average number of points per batch           ...       63
Average number of grid points per atom       ...     9149
Average number of shells per batch           ...    49.07 (48.58%)
Average number of basis functions per batch  ...   125.67 (48.52%)
Average number of large shells per batch     ...    36.17 (73.72%)
Average number of large basis fcns per batch ...    91.65 (72.93%)
Maximum spatial batch extension              ...  35.02, 28.13, 33.95 au
Average spatial batch extension              ...   2.51,  2.47,  2.48 au

Time for grid setup =    3.767 sec

--------------------
COSX GRID GENERATION
--------------------

General Integration Accuracy     IntAcc      ...  3.340
Radial Grid Type                 RadialGrid  ... Gauss-Chebyshev
Angular Grid (max. acc.)         AngularGrid ... Lebedev-50
Angular grid pruning method      GridPruning ... 3 (G Style)
Weight generation scheme         WeightScheme... Becke
Basis function cutoff            BFCut       ...    1.0000e-11
Integration weight cutoff        WCut        ...    1.0000e-14
Grids for H and He will be reduced by one unit

# of grid points (after initial pruning)     ...   6578 (   0.0 sec)
# of grid points (after weights+screening)   ...   6245 (   0.0 sec)
nearest neighbour list constructed           ...    0.0 sec
Grid point re-assignment to atoms done       ...    0.0 sec
Grid point division into batches done        ...    0.0 sec
Reduced shell lists constructed in    0.2 sec

Total number of grid points                  ...     6245
Total number of batches                      ...      104
Average number of points per batch           ...       60
Average number of grid points per atom       ...      520
Average number of shells per batch           ...    59.50 (58.92%)
Average number of basis functions per batch  ...   155.96 (60.22%)
Average number of large shells per batch     ...    44.93 (75.51%)
Average number of large basis fcns per batch ...   115.79 (74.24%)
Maximum spatial batch extension              ...  44.74, 32.24, 33.80 au
Average spatial batch extension              ...   7.00,  6.48,  6.56 au

Overlap Fitting                  UseSFitting ... on
Constructing numerical overlap ... done (      0.1 sec)
Inverting numerical overlap    ... done (      0.0 sec)
Obtaining analytic overlap     ... done (      0.0 sec)
Final contraction and storage  ... done (      0.0 sec)


General Integration Accuracy     IntAcc      ...  3.670
Radial Grid Type                 RadialGrid  ... Gauss-Chebyshev
Angular Grid (max. acc.)         AngularGrid ... Lebedev-50
Angular grid pruning method      GridPruning ... 3 (G Style)
Weight generation scheme         WeightScheme... Becke
Basis function cutoff            BFCut       ...    1.0000e-11
Integration weight cutoff        WCut        ...    1.0000e-14
Grids for H and He will be reduced by one unit

# of grid points (after initial pruning)     ...   8124 (   0.0 sec)
# of grid points (after weights+screening)   ...   7695 (   0.0 sec)
nearest neighbour list constructed           ...    0.0 sec
Grid point re-assignment to atoms done       ...    0.0 sec
Grid point division into batches done        ...    0.0 sec
Reduced shell lists constructed in    0.2 sec

Total number of grid points                  ...     7695
Total number of batches                      ...      125
Average number of points per batch           ...       61
Average number of grid points per atom       ...      641
Average number of shells per batch           ...    59.05 (58.46%)
Average number of basis functions per batch  ...   154.56 (59.67%)
Average number of large shells per batch     ...    44.81 (75.89%)
Average number of large basis fcns per batch ...   114.89 (74.34%)
Maximum spatial batch extension              ...  46.50, 33.12, 35.40 au
Average spatial batch extension              ...   6.54,  6.06,  6.13 au

Overlap Fitting                  UseSFitting ... on
Constructing numerical overlap ... done (      0.1 sec)
Inverting numerical overlap    ... done (      0.0 sec)
Obtaining analytic overlap     ... done (      0.0 sec)
Final contraction and storage  ... done (      0.0 sec)


General Integration Accuracy     IntAcc      ...  4.010
Radial Grid Type                 RadialGrid  ... Gauss-Chebyshev
Angular Grid (max. acc.)         AngularGrid ... Lebedev-110
Angular grid pruning method      GridPruning ... 3 (G Style)
Weight generation scheme         WeightScheme... Becke
Basis function cutoff            BFCut       ...    1.0000e-11
Integration weight cutoff        WCut        ...    1.0000e-14
Grids for H and He will be reduced by one unit

# of grid points (after initial pruning)     ...  15170 (   0.0 sec)
# of grid points (after weights+screening)   ...  14484 (   0.0 sec)
nearest neighbour list constructed           ...    0.0 sec
Grid point re-assignment to atoms done       ...    0.0 sec
Grid point division into batches done        ...    0.0 sec
Reduced shell lists constructed in    0.5 sec

Total number of grid points                  ...    14484
Total number of batches                      ...      232
Average number of points per batch           ...       62
Average number of grid points per atom       ...     1207
Average number of shells per batch           ...    55.65 (55.10%)
Average number of basis functions per batch  ...   145.00 (55.99%)
Average number of large shells per batch     ...    41.59 (74.74%)
Average number of large basis fcns per batch ...   106.91 (73.73%)
Maximum spatial batch extension              ...  30.98, 26.95, 30.94 au
Average spatial batch extension              ...   5.33,  5.17,  5.11 au

Overlap Fitting                  UseSFitting ... on
Constructing numerical overlap ... done (      0.2 sec)
Inverting numerical overlap    ... done (      0.0 sec)
Obtaining analytic overlap     ... done (      0.0 sec)
Final contraction and storage  ... done (      0.0 sec)

Time for X-Grid setup             =    1.563 sec
--------------
SCF ITERATIONS
--------------
ITER       Energy         Delta-E        Max-DP      RMS-DP      [F,P]     Damp
               ***  Starting incremental Fock matrix formation  ***
  0  -1668.5117665727   0.000000000000 0.02745080  0.00057419  0.6192585 0.8500
  1  -1668.5653444484  -0.053577875748 0.02404942  0.00068118  0.5270099 0.8500
                               ***Turning on DIIS***
  2  -1668.6170881293  -0.051743680900 0.02371892  0.00065580  0.4482981 0.8500
  3  -1668.6619338083  -0.044845678951 0.02097002  0.00058374  0.3813117 0.8500
  4  -1668.7007751401  -0.038841331818 0.01879407  0.00053208  0.3242489 0.8500
  5  -1668.7343438361  -0.033568696050 0.01799450  0.00048857  0.2756708 0.8500
  6  -1668.7638510674  -0.029507231295 0.01664957  0.00044385  0.2343552 0.8500
  7  -1668.7899368191  -0.026085751631 0.01513505  0.00040066  0.1992284 0.8500
  8  -1668.8129735243  -0.023036705213 0.01353062  0.00035694  0.1693669 0.8500
  9  -1668.8331171839  -0.020143659672 0.01257422  0.00031392  0.1439796 0.8500
 10  -1668.8506462356  -0.017529051644 0.01163258  0.00027410  0.1223960 0.8500
 11  -1668.8658754254  -0.015229189821 0.01044191  0.00023853  0.1040467 0.8500
 12  -1668.8790908260  -0.013215400571 0.00916053  0.00020724  0.0884474 0.8500
 13  -1668.8905391975  -0.011448371480 0.00797750  0.00017971  0.0751861 0.8500
 14  -1668.9004346513  -0.009895453826 0.00696157  0.00015549  0.0639125 0.8500
 15  -1668.9089694021  -0.008534750774 0.00608610  0.00013427  0.0543289 0.8500
 16  -1668.9163173549  -0.007347952879 0.00530959  0.00011580  0.0461821 0.8500
 17  -1668.9226340192  -0.006316664227 0.00461302  0.00009978  0.0392568 0.8500
 18  -1668.9280568931  -0.005422873945 0.00399548  0.00008593  0.0333698 0.8500
 19  -1668.9327067895  -0.004649896368 0.02305160  0.00049309  0.0283655 0.0000
               *** Restarting incremental Fock matrix formation ***
                                   *** Resetting DIIS ***
                      *** Initiating the SOSCF procedure ***
                           *** Shutting down DIIS ***
                      *** Re-Reading the Fockian *** 
                      *** Removing any level shift *** 
ITER      Energy       Delta-E        Grad      Rot      Max-DP    RMS-DP
 20  -1668.96209230  -0.0293855111  0.000471  0.000471  0.001070  0.000025
               *** Restarting incremental Fock matrix formation ***
 21  -1668.95983577   0.0022565304  0.000308  0.002002  0.001023  0.000027
 22  -1668.95983966  -0.0000038939  0.000144  0.001383  0.000822  0.000014
 23  -1668.95983990  -0.0000002354  0.000116  0.000116  0.000253  0.000005
 24  -1668.95984052  -0.0000006212  0.000017  0.000091  0.000053  0.000001
 25  -1668.95984061  -0.0000000847  0.000006  0.000017  0.000024  0.000000
 26  -1668.95984061  -0.0000000019  0.000003  0.000015  0.000010  0.000000
                  ***Gradient check signals convergence***
              ***Rediagonalizing the Fockian in SOSCF/NRSCF***

               *****************************************************
               *                     SUCCESS                       *
               *           SCF CONVERGED AFTER  27 CYCLES          *
               *****************************************************

Old exchange energy                            =    -59.140272125 Eh
New exchange energy                            =    -59.143260616 Eh
Exchange energy change after final integration =     -0.002988491 Eh
Total energy after final integration           =  -1668.962829083 Eh
Final COS-X integration done in                =    18.234 sec

----------------
TOTAL SCF ENERGY
----------------

Total Energy       :        -1668.96282908 Eh          -45414.78742 eV

Components:
Nuclear Repulsion  :          509.21590883 Eh           13856.46933 eV
Electronic Energy  :        -2178.17873792 Eh          -59271.25675 eV

One Electron Energy:        -3388.72986417 Eh          -92212.02757 eV
Two Electron Energy:         1210.55112625 Eh           32940.77082 eV

Virial components:
Potential Energy   :        -3206.24134242 Eh          -87246.26244 eV
Kinetic Energy     :         1537.27851334 Eh           41831.47502 eV
Virial Ratio       :            2.08566068


DFT components:
N(Alpha)           :       46.000004236850 electrons
N(Beta)            :       46.000004236850 electrons
N(Total)           :       92.000008473699 electrons
E(X)               :      -52.533353949501 Eh       
E(C)               :       -2.592430593847 Eh       
E(XC)              :      -55.125784543348 Eh       

---------------
SCF CONVERGENCE
---------------

  Last Energy change         ...    1.4943e-08  Tolerance :   1.0000e-08
  Last MAX-Density change    ...    6.9278e-14  Tolerance :   1.0000e-07
  Last RMS-Density change    ...    6.3668e-16  Tolerance :   5.0000e-09
  Last Orbital Gradient      ...    7.5107e-07  Tolerance :   1.0000e-05
  Last Orbital Rotation      ...    4.1087e-06  Tolerance :   1.0000e-05

             **** THE GBW FILE WAS UPDATED (PbMACl3_mp2_md2_7.orca.gbw) ****
             **** DENSITY FILE WAS UPDATED (PbMACl3_mp2_md2_7.orca.scfp.tmp) ****
             **** ENERGY FILE WAS UPDATED (PbMACl3_mp2_md2_7.orca.en.tmp) ****
----------------
ORBITAL ENERGIES
----------------

  NO   OCC          E(Eh)            E(eV) 
   0   2.0000    -102.884269     -2799.6233 
   1   2.0000    -102.883175     -2799.5935 
   2   2.0000    -102.748718     -2795.9348 
   3   2.0000     -14.985931      -407.7879 
   4   2.0000     -10.713746      -291.5358 
   5   2.0000      -9.889808      -269.1154 
   6   2.0000      -9.888640      -269.0836 
   7   2.0000      -9.754749      -265.4402 
   8   2.0000      -7.527070      -204.8220 
   9   2.0000      -7.525914      -204.7905 
  10   2.0000      -7.525269      -204.7730 
  11   2.0000      -7.524572      -204.7540 
  12   2.0000      -7.524101      -204.7412 
  13   2.0000      -7.523393      -204.7219 
  14   2.0000      -7.391575      -201.1350 
  15   2.0000      -7.390456      -201.1045 
  16   2.0000      -7.390445      -201.1042 
  17   2.0000      -5.867604      -159.6656 
  18   2.0000      -3.642980       -99.1305 
  19   2.0000      -3.636609       -98.9572 
  20   2.0000      -3.634174       -98.8909 
  21   2.0000      -1.155519       -31.4433 
  22   2.0000      -1.033365       -28.1193 
  23   2.0000      -1.028592       -27.9894 
  24   2.0000      -1.027013       -27.9464 
  25   2.0000      -1.026267       -27.9262 
  26   2.0000      -1.022241       -27.8166 
  27   2.0000      -0.896622       -24.3983 
  28   2.0000      -0.887341       -24.1458 
  29   2.0000      -0.868013       -23.6198 
  30   2.0000      -0.768430       -20.9100 
  31   2.0000      -0.686082       -18.6692 
  32   2.0000      -0.669811       -18.2265 
  33   2.0000      -0.610203       -16.6045 
  34   2.0000      -0.596870       -16.2417 
  35   2.0000      -0.523286       -14.2393 
  36   2.0000      -0.522379       -14.2147 
  37   2.0000      -0.411553       -11.1989 
  38   2.0000      -0.378790       -10.3074 
  39   2.0000      -0.377719       -10.2783 
  40   2.0000      -0.366741        -9.9795 
  41   2.0000      -0.363024        -9.8784 
  42   2.0000      -0.339744        -9.2449 
  43   2.0000      -0.262285        -7.1371 
  44   2.0000      -0.248478        -6.7614 
  45   2.0000      -0.248328        -6.7574 
  46   0.0000      -0.114436        -3.1140 
  47   0.0000      -0.055548        -1.5115 
  48   0.0000      -0.011544        -0.3141 
  49   0.0000       0.008869         0.2413 
  50   0.0000       0.060930         1.6580 
  51   0.0000       0.062403         1.6981 
  52   0.0000       0.088620         2.4115 
  53   0.0000       0.101993         2.7754 
  54   0.0000       0.113253         3.0818 
  55   0.0000       0.125372         3.4115 
  56   0.0000       0.129656         3.5281 
  57   0.0000       0.138455         3.7675 
  58   0.0000       0.170267         4.6332 
  59   0.0000       0.187677         5.1069 
  60   0.0000       0.195067         5.3081 
  61   0.0000       0.203100         5.5266 
  62   0.0000       0.230730         6.2785 
  63   0.0000       0.241115         6.5611 
  64   0.0000       0.257173         6.9980 
  65   0.0000       0.261025         7.1029 
  66   0.0000       0.265212         7.2168 
  67   0.0000       0.294315         8.0087 
  68   0.0000       0.304028         8.2730 
  69   0.0000       0.333239         9.0679 
  70   0.0000       0.388178        10.5629 
  71   0.0000       0.394032        10.7222 
  72   0.0000       0.420223        11.4348 
  73   0.0000       0.424537        11.5522 
  74   0.0000       0.433993        11.8096 
  75   0.0000       0.437770        11.9123 
  76   0.0000       0.446428        12.1479 
  77   0.0000       0.455038        12.3822 
  78   0.0000       0.467198        12.7131 
  79   0.0000       0.477671        12.9981 
  80   0.0000       0.486413        13.2360 
  81   0.0000       0.489633        13.3236 
  82   0.0000       0.494078        13.4445 
  83   0.0000       0.496346        13.5063 
  84   0.0000       0.508655        13.8412 
  85   0.0000       0.510973        13.9043 
  86   0.0000       0.523118        14.2348 
  87   0.0000       0.525199        14.2914 
  88   0.0000       0.544441        14.8150 
  89   0.0000       0.554824        15.0975 
  90   0.0000       0.560301        15.2466 
  91   0.0000       0.564201        15.3527 
  92   0.0000       0.567078        15.4310 
  93   0.0000       0.573093        15.5947 
  94   0.0000       0.573429        15.6038 
  95   0.0000       0.589620        16.0444 
  96   0.0000       0.635756        17.2998 
  97   0.0000       0.641450        17.4548 
  98   0.0000       0.644562        17.5394 
  99   0.0000       0.652448        17.7540 
 100   0.0000       0.676582        18.4107 
 101   0.0000       0.691451        18.8153 
 102   0.0000       0.707802        19.2603 
 103   0.0000       0.713532        19.4162 
 104   0.0000       0.724104        19.7039 
 105   0.0000       0.725169        19.7328 
 106   0.0000       0.735421        20.0118 
 107   0.0000       0.762952        20.7610 
 108   0.0000       0.798797        21.7364 
 109   0.0000       0.807587        21.9756 
 110   0.0000       0.828275        22.5385 
 111   0.0000       0.829420        22.5697 
 112   0.0000       0.838205        22.8087 
 113   0.0000       0.858637        23.3647 
 114   0.0000       0.874754        23.8033 
 115   0.0000       0.901097        24.5201 
 116   0.0000       0.914721        24.8908 
 117   0.0000       1.003353        27.3026 
 118   0.0000       1.010688        27.5022 
 119   0.0000       1.018928        27.7265 
 120   0.0000       1.023096        27.8399 
 121   0.0000       1.054327        28.6897 
 122   0.0000       1.060071        28.8460 
 123   0.0000       1.114650        30.3312 
 124   0.0000       1.183516        32.2051 
 125   0.0000       1.201256        32.6878 
 126   0.0000       1.242643        33.8140 
 127   0.0000       1.254865        34.1466 
 128   0.0000       1.294221        35.2175 
 129   0.0000       1.358049        36.9544 
 130   0.0000       1.486632        40.4533 
 131   0.0000       1.562488        42.5175 
 132   0.0000       1.566638        42.6304 
 133   0.0000       1.576062        42.8868 
 134   0.0000       1.592889        43.3447 
 135   0.0000       1.605668        43.6924 
 136   0.0000       1.691817        46.0367 
 137   0.0000       1.799989        48.9802 
 138   0.0000       1.830728        49.8166 
 139   0.0000       1.874511        51.0080 
 140   0.0000       1.877421        51.0872 
 141   0.0000       1.887640        51.3653 
 142   0.0000       1.897202        51.6255 
 143   0.0000       1.902179        51.7609 
 144   0.0000       1.902948        51.7818 
 145   0.0000       1.928995        52.4906 
 146   0.0000       1.932094        52.5749 
 147   0.0000       1.951669        53.1076 
 148   0.0000       1.962931        53.4141 
 149   0.0000       1.992343        54.2144 
 150   0.0000       2.005206        54.5644 
 151   0.0000       2.006749        54.6064 
 152   0.0000       2.016246        54.8648 
 153   0.0000       2.023116        55.0518 
 154   0.0000       2.027698        55.1765 
 155   0.0000       2.041443        55.5505 
 156   0.0000       2.046413        55.6857 
 157   0.0000       2.076636        56.5081 
 158   0.0000       2.089537        56.8592 
 159   0.0000       2.091563        56.9143 
 160   0.0000       2.103350        57.2351 
 161   0.0000       2.105374        57.2901 
 162   0.0000       2.108351        57.3711 
 163   0.0000       2.110972        57.4425 
 164   0.0000       2.157673        58.7133 
 165   0.0000       2.179053        59.2951 
 166   0.0000       2.210200        60.1426 
 167   0.0000       2.228171        60.6316 
 168   0.0000       2.234278        60.7978 
 169   0.0000       2.235618        60.8343 
 170   0.0000       2.236629        60.8618 
 171   0.0000       2.237551        60.8869 
 172   0.0000       2.250278        61.2332 
 173   0.0000       2.260301        61.5059 
 174   0.0000       2.265740        61.6539 
 175   0.0000       2.271161        61.8014 
 176   0.0000       2.276972        61.9596 
 177   0.0000       2.278201        61.9930 
 178   0.0000       2.283956        62.1496 
 179   0.0000       2.319300        63.1114 
 180   0.0000       2.325262        63.2736 
 181   0.0000       2.346003        63.8380 
 182   0.0000       2.353396        64.0392 
 183   0.0000       2.356698        64.1290 
 184   0.0000       2.357872        64.1610 
 185   0.0000       2.363883        64.3245 
 186   0.0000       2.366287        64.3899 
 187   0.0000       2.372850        64.5685 
 188   0.0000       2.380475        64.7760 
 189   0.0000       2.392105        65.0925 
 190   0.0000       2.395285        65.1790 
 191   0.0000       2.402212        65.3675 
 192   0.0000       2.425430        65.9993 
 193   0.0000       2.433425        66.2169 
 194   0.0000       2.436946        66.3127 
 195   0.0000       2.455794        66.8256 
 196   0.0000       2.465844        67.0990 
 197   0.0000       2.473949        67.3196 
 198   0.0000       2.489919        67.7541 
 199   0.0000       2.516135        68.4675 
 200   0.0000       2.539937        69.1152 
 201   0.0000       2.561114        69.6914 
 202   0.0000       2.611788        71.0704 
 203   0.0000       2.623301        71.3836 
 204   0.0000       2.629544        71.5535 
 205   0.0000       2.667926        72.5980 
 206   0.0000       2.715118        73.8821 
 207   0.0000       2.732719        74.3611 
 208   0.0000       2.769565        75.3637 
 209   0.0000       2.797071        76.1122 
 210   0.0000       2.949396        80.2571 
 211   0.0000       3.056433        83.1698 
 212   0.0000       3.111975        84.6811 
 213   0.0000       3.119435        84.8842 
 214   0.0000       3.200934        87.1018 
 215   0.0000       3.203460        87.1706 
 216   0.0000       3.208174        87.2989 
 217   0.0000       3.282376        89.3180 
 218   0.0000       3.394341        92.3647 
 219   0.0000       3.549999        96.6004 
 220   0.0000       3.564912        97.0062 
 221   0.0000       3.575348        97.2902 
 222   0.0000       3.752391       102.1078 
 223   0.0000       3.791346       103.1678 
 224   0.0000       3.894384       105.9716 
 225   0.0000       4.158994       113.1720 
 226   0.0000       4.173245       113.5598 
 227   0.0000       4.388310       119.4120 
 228   0.0000       4.442073       120.8750 
 229   0.0000       4.826799       131.3439 
 230   0.0000       4.833230       131.5189 
 231   0.0000       4.924624       134.0058 
 232   0.0000       4.931519       134.1935 
 233   0.0000       5.035701       137.0284 
 234   0.0000       5.077260       138.1593 
 235   0.0000       5.137853       139.8081 
 236   0.0000       5.288854       143.9170 
 237   0.0000       5.451877       148.3531 
 238   0.0000       5.490936       149.4160 
 239   0.0000       5.794932       157.6881 
 240   0.0000      11.023336       299.9602 
 241   0.0000      11.025753       300.0260 
 242   0.0000      11.031406       300.1798 
 243   0.0000      11.040672       300.4320 
 244   0.0000      11.119478       302.5764 
 245   0.0000      11.136335       303.0351 
 246   0.0000      11.141908       303.1867 
 247   0.0000      11.156551       303.5852 
 248   0.0000      11.213715       305.1407 
 249   0.0000      22.644546       616.1894 
 250   0.0000      24.964975       679.3315 
 251   0.0000      25.042341       681.4368 
 252   0.0000      25.117110       683.4713 
 253   0.0000      32.293034       878.7381 
 254   0.0000      35.418592       963.7889 
 255   0.0000      35.646972       970.0034 
 256   0.0000      35.682577       970.9723 
 257   0.0000      35.734624       972.3886 
 258   0.0000     123.514060      3360.9884 

                    ********************************
                    * MULLIKEN POPULATION ANALYSIS *
                    ********************************

-----------------------
MULLIKEN ATOMIC CHARGES
-----------------------
   0 C :   -0.233720
   1 N :   -0.295482
   2 H :    0.133545
   3 H :    0.174716
   4 H :    0.174024
   5 H :    0.268949
   6 H :    0.269440
   7 H :    0.263700
   8 Pb:    0.880730
   9 Cl:   -0.435136
  10 Cl:   -0.757786
  11 Cl:   -0.442980
Sum of atomic charges:   -0.0000000

--------------------------------
MULLIKEN REDUCED ORBITAL CHARGES
--------------------------------
  0 C s       :     3.259698  s :     3.259698
      pz      :     0.983129  p :     2.901728
      px      :     1.003322
      py      :     0.915277
      dz2     :     0.005865  d :     0.066249
      dxz     :     0.017883
      dyz     :     0.018169
      dx2y2   :     0.006187
      dxy     :     0.018145
      f0      :     0.000355  f :     0.006046
      f+1     :     0.000489
      f-1     :     0.000675
      f+2     :     0.000744
      f-2     :     0.002682
      f+3     :     0.000530
      f-3     :     0.000572
  1 N s       :     3.427813  s :     3.427813
      pz      :     1.277507  p :     3.815632
      px      :     1.271957
      py      :     1.266168
      dz2     :     0.005527  d :     0.049772
      dxz     :     0.013207
      dyz     :     0.012194
      dx2y2   :     0.006224
      dxy     :     0.012620
      f0      :     0.000133  f :     0.002265
      f+1     :     0.000178
      f-1     :     0.000211
      f+2     :     0.000230
      f-2     :     0.001162
      f+3     :     0.000168
      f-3     :     0.000184
  2 H s       :     0.845196  s :     0.845196
      pz      :     0.008184  p :     0.021259
      px      :     0.007662
      py      :     0.005413
  3 H s       :     0.803017  s :     0.803017
      pz      :     0.006706  p :     0.022266
      px      :     0.007626
      py      :     0.007935
  4 H s       :     0.803710  s :     0.803710
      pz      :     0.007040  p :     0.022266
      px      :     0.007190
      py      :     0.008036
  5 H s       :     0.698172  s :     0.698172
      pz      :     0.009412  p :     0.032880
      px      :     0.011931
      py      :     0.011537
  6 H s       :     0.697424  s :     0.697424
      pz      :     0.011522  p :     0.033136
      px      :     0.009857
      py      :     0.011756
  7 H s       :     0.687610  s :     0.687610
      pz      :     0.018123  p :     0.048690
      px      :     0.016872
      py      :     0.013696
  8 Pbs       :     3.926652  s :     3.926652
      pz      :     2.336941  p :     6.997987
      px      :     2.332425
      py      :     2.328621
      dz2     :     2.034376  d :    10.153506
      dxz     :     2.047971
      dyz     :     2.024001
      dx2y2   :     2.024948
      dxy     :     2.022211
      f0      :     0.006555  f :     0.041124
      f+1     :     0.006634
      f-1     :     0.005740
      f+2     :     0.005455
      f-2     :     0.007886
      f+3     :     0.004468
      f-3     :     0.004385
  9 Cls       :     5.960202  s :     5.960202
      pz      :     3.717792  p :    11.455687
      px      :     3.864533
      py      :     3.873362
      dz2     :     0.005860  d :     0.018410
      dxz     :     0.004605
      dyz     :     0.005374
      dx2y2   :     0.001025
      dxy     :     0.001545
      f0      :     0.000149  f :     0.000837
      f+1     :     0.000184
      f-1     :     0.000217
      f+2     :     0.000083
      f-2     :     0.000154
      f+3     :     0.000025
      f-3     :     0.000025
 10 Cls       :     5.959111  s :     5.959111
      pz      :     3.945832  p :    11.791627
      px      :     3.949726
      py      :     3.896069
      dz2     :     0.000675  d :     0.006737
      dxz     :     0.001332
      dyz     :     0.002046
      dx2y2   :     0.000813
      dxy     :     0.001871
      f0      :     0.000046  f :     0.000311
      f+1     :     0.000016
      f-1     :     0.000022
      f+2     :     0.000029
      f-2     :     0.000122
      f+3     :     0.000056
      f-3     :     0.000019
 11 Cls       :     5.959942  s :     5.959942
      pz      :     3.851051  p :    11.464062
      px      :     3.730304
      py      :     3.882707
      dz2     :     0.001838  d :     0.018148
      dxz     :     0.005354
      dyz     :     0.001649
      dx2y2   :     0.004626
      dxy     :     0.004680
      f0      :     0.000098  f :     0.000829
      f+1     :     0.000107
      f-1     :     0.000032
      f+2     :     0.000142
      f-2     :     0.000166
      f+3     :     0.000113
      f-3     :     0.000170


                     *******************************
                     * LOEWDIN POPULATION ANALYSIS *
                     *******************************

----------------------
LOEWDIN ATOMIC CHARGES
----------------------
   0 C :   -0.274049
   1 N :    0.099027
   2 H :    0.114802
   3 H :    0.133899
   4 H :    0.133523
   5 H :    0.196805
   6 H :    0.195245
   7 H :    0.112708
   8 Pb:    0.337152
   9 Cl:   -0.169180
  10 Cl:   -0.704735
  11 Cl:   -0.175198

-------------------------------
LOEWDIN REDUCED ORBITAL CHARGES
-------------------------------
  0 C s       :     2.857126  s :     2.857126
      pz      :     1.035474  p :     3.084925
      px      :     1.047812
      py      :     1.001639
      dz2     :     0.026188  d :     0.295129
      dxz     :     0.079681
      dyz     :     0.079674
      dx2y2   :     0.031047
      dxy     :     0.078539
      f0      :     0.005234  f :     0.036868
      f+1     :     0.003801
      f-1     :     0.005588
      f+2     :     0.004195
      f-2     :     0.007320
      f+3     :     0.004979
      f-3     :     0.005751
  1 N s       :     3.007125  s :     3.007125
      pz      :     1.246824  p :     3.721315
      px      :     1.242369
      py      :     1.232122
      dz2     :     0.017554  d :     0.162928
      dxz     :     0.040436
      dyz     :     0.042377
      dx2y2   :     0.019005
      dxy     :     0.043556
      f0      :     0.001542  f :     0.009605
      f+1     :     0.001120
      f-1     :     0.001389
      f+2     :     0.001050
      f-2     :     0.001727
      f+3     :     0.001288
      f-3     :     0.001489
  2 H s       :     0.823237  s :     0.823237
      pz      :     0.022865  p :     0.061961
      px      :     0.021740
      py      :     0.017356
  3 H s       :     0.802757  s :     0.802757
      pz      :     0.018864  p :     0.063344
      px      :     0.023015
      py      :     0.021465
  4 H s       :     0.803150  s :     0.803150
      pz      :     0.021367  p :     0.063327
      px      :     0.020251
      py      :     0.021709
  5 H s       :     0.707038  s :     0.707038
      pz      :     0.030594  p :     0.096157
      px      :     0.033017
      py      :     0.032547
  6 H s       :     0.707434  s :     0.707434
      pz      :     0.031968  p :     0.097321
      px      :     0.032154
      py      :     0.033199
  7 H s       :     0.720287  s :     0.720287
      pz      :     0.062542  p :     0.167005
      px      :     0.057868
      py      :     0.046595
  8 Pbs       :     3.812339  s :     3.812339
      pz      :     2.446999  p :     7.294893
      px      :     2.437727
      py      :     2.410167
      dz2     :     2.094959  d :    10.446740
      dxz     :     2.134961
      dyz     :     2.079468
      dx2y2   :     2.066737
      dxy     :     2.070616
      f0      :     0.016241  f :     0.108875
      f+1     :     0.017427
      f-1     :     0.016751
      f+2     :     0.013895
      f-2     :     0.022076
      f+3     :     0.009418
      f-3     :     0.013069
  9 Cls       :     5.780431  s :     5.780431
      pz      :     3.698301  p :    11.358582
      px      :     3.824185
      py      :     3.836097
      dz2     :     0.008795  d :     0.028659
      dxz     :     0.006264
      dyz     :     0.010601
      dx2y2   :     0.001037
      dxy     :     0.001961
      f0      :     0.000143  f :     0.001508
      f+1     :     0.000340
      f-1     :     0.000578
      f+2     :     0.000099
      f-2     :     0.000295
      f+3     :     0.000033
      f-3     :     0.000020
 10 Cls       :     5.930681  s :     5.930681
      pz      :     3.933432  p :    11.764643
      px      :     3.938726
      py      :     3.892485
      dz2     :     0.000711  d :     0.008907
      dxz     :     0.001676
      dyz     :     0.002924
      dx2y2   :     0.000923
      dxy     :     0.002673
      f0      :     0.000078  f :     0.000503
      f+1     :     0.000018
      f-1     :     0.000028
      f+2     :     0.000039
      f-2     :     0.000219
      f+3     :     0.000095
      f-3     :     0.000025
 11 Cls       :     5.780138  s :     5.780138
      pz      :     3.811837  p :    11.365058
      px      :     3.709246
      py      :     3.843975
      dz2     :     0.002742  d :     0.028498
      dxz     :     0.008222
      dyz     :     0.002306
      dx2y2   :     0.006206
      dxy     :     0.009023
      f0      :     0.000241  f :     0.001504
      f+1     :     0.000101
      f-1     :     0.000028
      f+2     :     0.000232
      f-2     :     0.000350
      f+3     :     0.000095
      f-3     :     0.000456


                      *****************************
                      * MAYER POPULATION ANALYSIS *
                      *****************************

  NA   - Mulliken gross atomic population
  ZA   - Total nuclear charge
  QA   - Mulliken gross atomic charge
  VA   - Mayer's total valence
  BVA  - Mayer's bonded valence
  FA   - Mayer's free valence

  ATOM       NA         ZA         QA         VA         BVA        FA
  0 C      6.2337     6.0000    -0.2337     3.8141     3.8141     0.0000
  1 N      7.2955     7.0000    -0.2955     3.2833     3.2833     0.0000
  2 H      0.8665     1.0000     0.1335     0.9611     0.9611    -0.0000
  3 H      0.8253     1.0000     0.1747     0.9748     0.9748    -0.0000
  4 H      0.8260     1.0000     0.1740     0.9747     0.9747     0.0000
  5 H      0.7311     1.0000     0.2689     0.9371     0.9371    -0.0000
  6 H      0.7306     1.0000     0.2694     0.9361     0.9361    -0.0000
  7 H      0.7363     1.0000     0.2637     1.0889     1.0889     0.0000
  8 Pb    21.1193    22.0000     0.8807     1.8751     1.8751    -0.0000
  9 Cl    17.4351    17.0000    -0.4351     0.9660     0.9660    -0.0000
 10 Cl    17.7578    17.0000    -0.7578     0.4383     0.4383     0.0000
 11 Cl    17.4430    17.0000    -0.4430     0.9528     0.9528    -0.0000

  Mayer bond orders larger than 0.1
B(  0-C ,  1-N ) :   0.8903 B(  0-C ,  2-H ) :   0.9657 B(  0-C ,  3-H ) :   0.9634 
B(  0-C ,  4-H ) :   0.9638 B(  1-N ,  5-H ) :   0.8976 B(  1-N ,  6-H ) :   0.8982 
B(  1-N ,  7-H ) :   0.6753 B(  7-H , 10-Cl) :   0.4096 B(  8-Pb,  9-Cl) :   0.9343 
B(  8-Pb, 11-Cl) :   0.9202 

-------
TIMINGS
-------

Total SCF time: 0 days 0 hours 5 min 10 sec 

Total time                  ....     310.709 sec
Sum of individual times     ....     291.443 sec  ( 93.8%)

Fock matrix formation       ....     284.911 sec  ( 91.7%)
  Coulomb formation         ....     218.545 sec  ( 76.7% of F)
  Split-RI-J                ....      20.340 sec  (  7.1% of F)
  Chain of spheres X        ....     216.338 sec  ( 75.9% of F)
  COS-X 1 center corr.      ....       0.000 sec  (  0.0% of F)
  XC integration            ....      66.398 sec  ( 23.3% of F)
    Basis function eval.    ....      32.230 sec  ( 48.5% of XC)
    Density eval.           ....      13.989 sec  ( 21.1% of XC)
    XC-Functional eval.     ....       4.219 sec  (  6.4% of XC)
    XC-Potential eval.      ....      14.527 sec  ( 21.9% of XC)
Diagonalization             ....       0.650 sec  (  0.2%)
Density matrix formation    ....       0.047 sec  (  0.0%)
Population analysis         ....       0.074 sec  (  0.0%)
Initial guess               ....       0.117 sec  (  0.0%)
Orbital Transformation      ....       0.000 sec  (  0.0%)
Orbital Orthonormalization  ....       0.114 sec  (  0.0%)
DIIS solution               ....       0.164 sec  (  0.1%)
SOSCF solution              ....       0.150 sec  (  0.0%)
Grid generation             ....       5.329 sec  (  1.7%)

------------------------------------------------------------------------------
                              ORCA MP2 CALCULATION
------------------------------------------------------------------------------


----------------------
RI-MP2 ENERGY+GRADIENT
----------------------
Dimension of the basis                    ...  259
Memory devoted to MP2                     ... 1000 MB   
Data format for buffers                   ... DOUBLE
Compression type for matrix containers    ... UNCOMPRESSED
Overall scaling of the MP2 energy         ...   2.700e-01 Eh
Calculating two index integrals           ... done (    0.013 sec)
Cholesky decomposition of the V-matrix    ... done
Cholesky decomposition of V**-1           ... done (    0.033 sec)

-----------------
RI-TRANSFORMATION (AUX index driven)
-----------------

Dimension of the orbital-basis         ... 259
Dimension of the aux-basis             ... 493
Transformation of internal MOs         ...    0-  45
Transformation of internal/external MOs...    0-  45 to   46- 258
Number Format for Storage              ... Double (8 Byte)
Integral mode                          ... Direct

First Phase: integral generation and transformation of MO indices
  Aux angular momentum 0               ... done (    0.449 sec)
  Aux angular momentum 1               ... done (    0.387 sec)
  Aux angular momentum 2               ... done (    0.478 sec)
  Aux angular momentum 3               ... done (    0.264 sec)
  Aux angular momentum 4               ... done (    0.234 sec)
Closing buffer VIJ ( 0.00 GB; CompressionRatio= 1.95)
Closing buffer VIA ( 0.04 GB; CompressionRatio= 1.00)
  Phase 1 completed in     1.915 sec
Second Phase: sorting and transformation of aux index

IJ-Transformation
Memory available                       ... 990 MB 
Max. # MO pairs treated in a batch     ... 46    
# of internal orbitals                 ... 46
# batches for internal orbitals        ... 1
Closing buffer IJV ( 0.00 GB; CompressionRatio= 1.00)
(ij|v) transformation done in     0.114 sec

IA-Transformation
Memory available                       ... 990 MB 
Max. # MO pairs treated in a batch     ... 46    
# of internal orbitals                 ... 46
# batches for internal orbitals        ... 1
Closing buffer IAV ( 0.04 GB; CompressionRatio= 1.00)
(ia|v) transformation done in     0.403 sec

  Phase 2 completed in     0.538 sec
RI-Integral transformation completed in     2.453 sec
Opening buffers                              ... done

Starting loop over batches of integrals:

Operator 0  - window                       ... (  0- 45)x( 46-258)
Operator 0  - Memory available             ...  1000 MB
Operator 0  - Memory needed per MO         ...   1.6 MB
Operator 0  - Number of orbitals per batch ... 46
Operator 0  - Number of batches            ... 1

OPERATOR  0   PASS   0:  MOs     0 ...   45
  Reading integrals       ... ok
  Internal MO   2
  Internal MO   5
  Internal MO   8
  Internal MO  11
  Internal MO  14
  Internal MO  17
  Internal MO  20
  Internal MO  23
  Internal MO  26
  Internal MO  29
  Internal MO  32
  Internal MO  35
  Internal MO  38
  Internal MO  41
  Internal MO  44
Closing buffer GIPV ( 0.04 GB; CompressionRatio= 1.00)
Time spent in pair loops =    43.327 sec

-----------------------------------------------
 RI-MP2 CORRELATION ENERGY:     -0.572640719 Eh
-----------------------------------------------


---------------------
MP2 DENSITY FORMATION
---------------------

Completing the external part of the density      ... done
Storing the unrelaxed density                    ... done

Calculating the xc-kernel                        ... done
Calculating G(D)                                 ... done
Completing the Lagrangian                        ... done
Solving the Z-vector equations                   ... 

------------------------------------------------------------------------------
                           ORCA CP-SCF CALCULATION
------------------------------------------------------------------------------

Input orbitals are from        ... PbMACl3_mp2_md2_7.orca.gbw
Input Perturbation             ... PbMACl3_mp2_md2_7.orca.pin.tmp
Wavefunction output            ... PbMACl3_mp2_md2_7.orca.pout.tmp
Perturbation mode              ... Real perturbation
Solver                         ... DIIS
   MaxDIIS                     ... 20
   Levelshift                  ...    3.000e-01 Eh
Max. number of iterations      ... 128
Convergence tolerance          ... 1.000e-08
Integral handling              ... Direct
COSX GridX                     ... 1
Number of perturbations        ... 1
Number of operators            ... 1
Orbital ranges used for CP-SCF:
 Operator 0:  Orbitals   0... 45  to  46...258
DFT calculation                         ... on
Exchange functional (SCF)               ... B88
Exchange functional (CP-SCF)            ... B88
   X-Alpha parameter    XAlpha (SCF)    ...  0.666667
   X-Alpha parameter    XAlpha (CP-SCF) ...  0.666667
   Becke's b parameter  XBeta (SCF)     ...  0.004200
   Becke's b parameter  XBeta (CP-SCF)  ...  0.004200
Correlation functional (SCF)            ... LYP
Correlation functional (CP-SCF)         ... LYP
 LDA part of GGA corr.  LDAOpt (SCF)    ... VWN-3
 LDA part of GGA corr.  LDAOpt (CP-SCF) ... VWN-3
Hybrid DFT                              ... on
   Exchange mixing (SCF)                ...  0.530
   Exchange mixing (CP-SCF)             ...  0.530
   GGA exch. scaling(SCF)               ...  0.470
   GGA exch. scaling (CP-SCF)           ...  0.470
   GGA corr. scaling (SCF)              ...  0.730
   GGA corr. scaling (CP-SCF)           ...  0.730
The RIJCOSX approximation is active
Variables per vector in CP-SCF ... 9798
Number of vectors sought       ... 1
Calculating the xc-kernel      ... done

Solving the CP-SCF equations by a DIIS algorithm

-----------------
CP-SCF ITERATIONS
-----------------
  Iteration   0: MaxR=  0.086962295
  Iteration   1: MaxR=  0.038357813
  Iteration   2: MaxR=  0.011603939
  Iteration   3: MaxR=  0.005900032
  Iteration   4: MaxR=  0.003124248
  Iteration   5: MaxR=  0.001429320
  Iteration   6: MaxR=  0.000558767
  Iteration   7: MaxR=  0.000202161
  Iteration   8: MaxR=  0.000119850
  Iteration   9: MaxR=  0.000072877
  Iteration  10: MaxR=  0.000036570
  Iteration  11: MaxR=  0.000013901
  Iteration  12: MaxR=  0.000005810
  Iteration  13: MaxR=  0.000002679
  Iteration  14: MaxR=  0.000001005
  Iteration  15: MaxR=  0.000000463
  Iteration  16: MaxR=  0.000000230
  Iteration  17: MaxR=  0.000000135
  Iteration  18: MaxR=  0.000000072
  Iteration  19: MaxR=  0.000000028
  Iteration  20: MaxR=  0.000000012
  Iteration  21: MaxR=  0.000000005
                              *** THE CP-SCF HAS CONVERGED *** 
done
Finalizing the relaxed density                   ... done
Transforming P to the AO basis                   ... done
Storing the relaxed density                      ... done

------------------------------------
ENERGY WEIGHTED DENSITY FINALIZATION
------------------------------------

Gathering the parts of the W-matrix              ... done
Forming the Z-density                            ... done
Transforming Z to the AO basis                   ... done
Calculating G(Z)                                 ... done
Finalizing the W-matrix                          ... done
Transforming W to the AO basis and storing       ... done
Entering the RIJONX and RIJCOSX sections
Starting the three-index derivative integrals:
Operator 0  - Memory available             ...  1000 MB
Operator 0  - Memory needed per MO         ...   1.0 MB
Operator 0  - Number of orbitals per batch ... 46
Operator 0  - Number of batches            ... 1

OPERATOR  0   PASS   0:  MOs     0 ...   45

----------------------------------
MP2 DERIVATIVE INTEGRAL GENERATION
----------------------------------


Input Correlated Electron Density   ... PbMACl3_mp2_md2_7.orca.pmp2re
Input Energy Weighted Density       ... PbMACl3_mp2_md2_7.orca.wmp2.tmp
Input SCF Electron Density          ... PbMACl3_mp2_md2_7.orca.scfp.tmp

One-Electron Terms    ...
  ECP gradient                                           ... One-Electron Terms done

-----------------------------------------------------------
MP2 COSX Grid Generation
-----------------------------------------------------------

General Integration Accuracy     IntAcc      ...  4.340
Radial Grid Type                 RadialGrid  ... Gauss-Chebyshev
Angular Grid (max. acc.)         AngularGrid ... Lebedev-302
Angular grid pruning method      GridPruning ... 3 (G Style)
Weight generation scheme         WeightScheme... Becke
Basis function cutoff            BFCut       ...    1.0000e-11
Integration weight cutoff        WCut        ...    1.0000e-14
Grids for H and He will be reduced by one unit

# of grid points (after initial pruning)     ...  57718 (   0.0 sec)
# of grid points (after weights+screening)   ...  54896 (   0.1 sec)
nearest neighbour list constructed           ...    0.0 sec
Grid point re-assignment to atoms done       ...    0.0 sec
Grid point division into batches done        ...    0.3 sec
Reduced shell lists constructed in    1.8 sec

Total number of grid points                  ...    54896
Total number of batches                      ...      863
Average number of points per batch           ...       63
Average number of grid points per atom       ...     4575
Average number of shells per batch           ...    50.66 (50.15%)
Average number of basis functions per batch  ...   130.44 (50.36%)
Average number of large shells per batch     ...    37.28 (73.59%)
Average number of large basis fcns per batch ...    94.88 (72.74%)
Maximum spatial batch extension              ...  31.21, 31.21, 31.14 au
Average spatial batch extension              ...   3.24,  3.15,  3.24 au

Overlap Fitting                  UseSFitting ... on
Two electron COSX terms .... 
Integration Timings:
Total Time                  =    79.6 sec
Basis fcn evaluation        =     0.6 sec
Density evaluation          =     1.5 sec
Integral evaluation         =    74.9 sec
K(P) evaluation             =     0.9 sec
                          .... COSX two electron terms done
COSX two-electron contribution to the gradient
     0:    -0.014260    -0.035429    -0.016723
     1:     0.039867     0.117958     0.040767
     2:     0.097972    -0.075468     0.104988
     3:    -0.105810     0.100305     0.094438
     4:     0.100757     0.101681    -0.098468
     5:    -0.122485    -0.129222     0.102922
     6:     0.108974    -0.131094    -0.117208
     7:    -0.081069     0.030911    -0.086051
     8:     0.040645    -0.073485     0.037266
     9:     0.037397     0.037504    -0.083664
    10:    -0.021664     0.023969    -0.022805
    11:    -0.080099     0.032886     0.044667
Exchange-correlation gradient    ... done
Dispersion correction            ... 
Entering the calculation of the dispersion correction...

Checking the input atom types...

Done
done

                *********************************************
                * UNRELAXED MP2 DENSITY POPULATION ANALYSIS *
                *********************************************

------------------------------------------------------------------------------
                           ORCA POPULATION ANALYSIS
------------------------------------------------------------------------------
Input electron density              ... PbMACl3_mp2_md2_7.orca.pmp2ur
BaseName (.gbw .S,...)              ... PbMACl3_mp2_md2_7.orca

                    ********************************
                    * MULLIKEN POPULATION ANALYSIS *
                    ********************************

-----------------------
MULLIKEN ATOMIC CHARGES
-----------------------
   0 C :   -0.238326
   1 N :   -0.294558
   2 H :    0.134448
   3 H :    0.175679
   4 H :    0.174996
   5 H :    0.268670
   6 H :    0.269216
   7 H :    0.261652
   8 Pb:    0.861394
   9 Cl:   -0.425222
  10 Cl:   -0.754657
  11 Cl:   -0.433292
Sum of atomic charges:   -0.0000000

--------------------------------
MULLIKEN REDUCED ORBITAL CHARGES
--------------------------------
  0 C s       :     3.258473  s :     3.258473
      pz      :     0.981794  p :     2.897894
      px      :     1.001808
      py      :     0.914292
      dz2     :     0.007875  d :     0.074781
      dxz     :     0.019435
      dyz     :     0.019638
      dx2y2   :     0.008178
      dxy     :     0.019654
      f0      :     0.000510  f :     0.007179
      f+1     :     0.000663
      f-1     :     0.000846
      f+2     :     0.000925
      f-2     :     0.002803
      f+3     :     0.000694
      f-3     :     0.000738
  1 N s       :     3.425519  s :     3.425519
      pz      :     1.274052  p :     3.805430
      px      :     1.268610
      py      :     1.262768
      dz2     :     0.007752  d :     0.060317
      dxz     :     0.015251
      dyz     :     0.014230
      dx2y2   :     0.008447
      dxy     :     0.014637
      f0      :     0.000275  f :     0.003292
      f+1     :     0.000327
      f-1     :     0.000361
      f+2     :     0.000384
      f-2     :     0.001300
      f+3     :     0.000313
      f-3     :     0.000332
  2 H s       :     0.843245  s :     0.843245
      pz      :     0.008517  p :     0.022307
      px      :     0.008000
      py      :     0.005790
  3 H s       :     0.801095  s :     0.801095
      pz      :     0.007036  p :     0.023227
      px      :     0.007950
      py      :     0.008240
  4 H s       :     0.801778  s :     0.801778
      pz      :     0.007370  p :     0.023226
      px      :     0.007516
      py      :     0.008340
  5 H s       :     0.697796  s :     0.697796
      pz      :     0.009639  p :     0.033534
      px      :     0.012122
      py      :     0.011773
  6 H s       :     0.696995  s :     0.696995
      pz      :     0.011720  p :     0.033789
      px      :     0.010078
      py      :     0.011990
  7 H s       :     0.689086  s :     0.689086
      pz      :     0.018285  p :     0.049262
      px      :     0.017047
      py      :     0.013930
  8 Pbs       :     3.907872  s :     3.907872
      pz      :     2.347269  p :     7.029502
      px      :     2.342830
      py      :     2.339403
      dz2     :     2.028782  d :    10.124863
      dxz     :     2.042079
      dyz     :     2.018272
      dx2y2   :     2.019253
      dxy     :     2.016477
      f0      :     0.011607  f :     0.076369
      f+1     :     0.011721
      f-1     :     0.010737
      f+2     :     0.010534
      f-2     :     0.012859
      f+3     :     0.009533
      f-3     :     0.009378
  9 Cls       :     5.955230  s :     5.955230
      pz      :     3.702621  p :    11.410263
      px      :     3.849457
      py      :     3.858185
      dz2     :     0.013461  d :     0.056240
      dxz     :     0.012187
      dyz     :     0.012962
      dx2y2   :     0.008563
      dxy     :     0.009066
      f0      :     0.000539  f :     0.003489
      f+1     :     0.000566
      f-1     :     0.000602
      f+2     :     0.000465
      f-2     :     0.000533
      f+3     :     0.000393
      f-3     :     0.000392
 10 Cls       :     5.954879  s :     5.954879
      pz      :     3.932516  p :    11.751644
      px      :     3.936447
      py      :     3.882680
      dz2     :     0.008366  d :     0.045206
      dxz     :     0.009017
      dyz     :     0.009754
      dx2y2   :     0.008498
      dxy     :     0.009571
      f0      :     0.000418  f :     0.002928
      f+1     :     0.000388
      f-1     :     0.000397
      f+2     :     0.000403
      f-2     :     0.000500
      f+3     :     0.000430
      f-3     :     0.000392
 11 Cls       :     5.954991  s :     5.954991
      pz      :     3.836041  p :    11.418825
      px      :     3.715177
      py      :     3.867607
      dz2     :     0.009390  d :     0.055995
      dxz     :     0.012921
      dyz     :     0.009173
      dx2y2   :     0.012232
      dxy     :     0.012279
      f0      :     0.000470  f :     0.003481
      f+1     :     0.000491
      f-1     :     0.000401
      f+2     :     0.000521
      f-2     :     0.000544
      f+3     :     0.000501
      f-3     :     0.000553


                     *******************************
                     * LOEWDIN POPULATION ANALYSIS *
                     *******************************

----------------------
LOEWDIN ATOMIC CHARGES
----------------------
   0 C :   -0.277171
   1 N :    0.098082
   2 H :    0.115468
   3 H :    0.134611
   4 H :    0.134237
   5 H :    0.196545
   6 H :    0.195025
   7 H :    0.111916
   8 Pb:    0.320267
   9 Cl:   -0.160531
  10 Cl:   -0.701671
  11 Cl:   -0.166777

-------------------------------
LOEWDIN REDUCED ORBITAL CHARGES
-------------------------------
  0 C s       :     2.856529  s :     2.856529
      pz      :     1.033169  p :     3.078039
      px      :     1.045412
      py      :     0.999458
      dz2     :     0.027977  d :     0.303987
      dxz     :     0.081476
      dyz     :     0.081429
      dx2y2   :     0.032796
      dxy     :     0.080309
      f0      :     0.005458  f :     0.038616
      f+1     :     0.004017
      f-1     :     0.005799
      f+2     :     0.004407
      f-2     :     0.007772
      f+3     :     0.005203
      f-3     :     0.005961
  1 N s       :     3.006537  s :     3.006537
      pz      :     1.243219  p :     3.710495
      px      :     1.238831
      py      :     1.228445
      dz2     :     0.019518  d :     0.173966
      dxz     :     0.042795
      dyz     :     0.044770
      dx2y2   :     0.020966
      dxy     :     0.045917
      f0      :     0.001717  f :     0.010920
      f+1     :     0.001292
      f-1     :     0.001559
      f+2     :     0.001221
      f-2     :     0.002006
      f+3     :     0.001465
      f-3     :     0.001658
  2 H s       :     0.820675  s :     0.820675
      pz      :     0.023530  p :     0.063857
      px      :     0.022374
      py      :     0.017954
  3 H s       :     0.800293  s :     0.800293
      pz      :     0.019431  p :     0.065096
      px      :     0.023627
      py      :     0.022037
  4 H s       :     0.800684  s :     0.800684
      pz      :     0.021957  p :     0.065079
      px      :     0.020837
      py      :     0.022285
  5 H s       :     0.705828  s :     0.705828
      pz      :     0.031047  p :     0.097627
      px      :     0.033471
      py      :     0.033108
  6 H s       :     0.706194  s :     0.706194
      pz      :     0.032405  p :     0.098782
      px      :     0.032619
      py      :     0.033758
  7 H s       :     0.720069  s :     0.720069
      pz      :     0.062890  p :     0.168015
      px      :     0.058216
      py      :     0.046909
  8 Pbs       :     3.794746  s :     3.794746
      pz      :     2.456482  p :     7.324080
      px      :     2.447323
      py      :     2.420274
      dz2     :     2.089155  d :    10.416854
      dxz     :     2.128470
      dyz     :     2.073604
      dx2y2   :     2.060862
      dxy     :     2.064764
      f0      :     0.021271  f :     0.144054
      f+1     :     0.022521
      f-1     :     0.021748
      f+2     :     0.018979
      f-2     :     0.027004
      f+3     :     0.014474
      f-3     :     0.018057
  9 Cls       :     5.775698  s :     5.775698
      pz      :     3.683572  p :    11.314084
      px      :     3.809350
      py      :     3.821162
      dz2     :     0.016416  d :     0.066542
      dxz     :     0.013877
      dyz     :     0.018212
      dx2y2   :     0.008552
      dxy     :     0.009484
      f0      :     0.000539  f :     0.004207
      f+1     :     0.000734
      f-1     :     0.000977
      f+2     :     0.000484
      f-2     :     0.000683
      f+3     :     0.000401
      f-3     :     0.000388
 10 Cls       :     5.926258  s :     5.926258
      pz      :     3.920170  p :    11.724810
      px      :     3.925494
      py      :     3.879146
      dz2     :     0.008428  d :     0.047469
      dxz     :     0.009382
      dyz     :     0.010636
      dx2y2   :     0.008644
      dxy     :     0.010379
      f0      :     0.000452  f :     0.003135
      f+1     :     0.000391
      f-1     :     0.000404
      f+2     :     0.000415
      f-2     :     0.000602
      f+3     :     0.000471
      f-3     :     0.000399
 11 Cls       :     5.775420  s :     5.775420
      pz      :     3.797098  p :    11.320759
      px      :     3.694553
      py      :     3.829109
      dz2     :     0.010264  d :     0.066393
      dxz     :     0.015847
      dyz     :     0.009831
      dx2y2   :     0.013822
      dxy     :     0.016630
      f0      :     0.000620  f :     0.004204
      f+1     :     0.000489
      f-1     :     0.000398
      f+2     :     0.000619
      f-2     :     0.000739
      f+3     :     0.000488
      f-3     :     0.000851


                      *****************************
                      * MAYER POPULATION ANALYSIS *
                      *****************************

  NA   - Mulliken gross atomic population
  ZA   - Total nuclear charge
  QA   - Mulliken gross atomic charge
  VA   - Mayer's total valence
  BVA  - Mayer's bonded valence
  FA   - Mayer's free valence

  ATOM       NA         ZA         QA         VA         BVA        FA
  0 C      6.2383     6.0000    -0.2383     3.8599     3.7464     0.1135
  1 N      7.2946     7.0000    -0.2946     3.3576     3.2164     0.1412
  2 H      0.8656     1.0000     0.1344     0.9643     0.9450     0.0193
  3 H      0.8243     1.0000     0.1757     0.9771     0.9591     0.0180
  4 H      0.8250     1.0000     0.1750     0.9770     0.9590     0.0180
  5 H      0.7313     1.0000     0.2687     0.9396     0.9192     0.0204
  6 H      0.7308     1.0000     0.2692     0.9386     0.9184     0.0201
  7 H      0.7383     1.0000     0.2617     1.0916     1.0695     0.0221
  8 Pb    21.1386    22.0000     0.8614     2.1825     1.8104     0.3721
  9 Cl    17.4252    17.0000    -0.4252     1.2026     0.9317     0.2709
 10 Cl    17.7547    17.0000    -0.7547     0.6772     0.4283     0.2489
 11 Cl    17.4333    17.0000    -0.4333     1.1893     0.9191     0.2701

  Mayer bond orders larger than 0.1
B(  0-C ,  1-N ) :   0.8689 B(  0-C ,  2-H ) :   0.9503 B(  0-C ,  3-H ) :   0.9485 
B(  0-C ,  4-H ) :   0.9489 B(  1-N ,  5-H ) :   0.8810 B(  1-N ,  6-H ) :   0.8817 
B(  1-N ,  7-H ) :   0.6638 B(  7-H , 10-Cl) :   0.4020 B(  8-Pb,  9-Cl) :   0.9017 
B(  8-Pb, 11-Cl) :   0.8883 


                *******************************************
                * RELAXED MP2 DENSITY POPULATION ANALYSIS *
                *******************************************

------------------------------------------------------------------------------
                           ORCA POPULATION ANALYSIS
------------------------------------------------------------------------------
Input electron density              ... PbMACl3_mp2_md2_7.orca.pmp2re
BaseName (.gbw .S,...)              ... PbMACl3_mp2_md2_7.orca

                    ********************************
                    * MULLIKEN POPULATION ANALYSIS *
                    ********************************

-----------------------
MULLIKEN ATOMIC CHARGES
-----------------------
   0 C :   -0.256052
   1 N :   -0.290902
   2 H :    0.138123
   3 H :    0.178360
   4 H :    0.177686
   5 H :    0.266961
   6 H :    0.267468
   7 H :    0.253296
   8 Pb:    0.800776
   9 Cl:   -0.394548
  10 Cl:   -0.738048
  11 Cl:   -0.403120
Sum of atomic charges:   -0.0000000

--------------------------------
MULLIKEN REDUCED ORBITAL CHARGES
--------------------------------
  0 C s       :     3.260793  s :     3.260793
      pz      :     0.988687  p :     2.917755
      px      :     1.008377
      py      :     0.920690
      dz2     :     0.008023  d :     0.070491
      dxz     :     0.017788
      dyz     :     0.018160
      dx2y2   :     0.008332
      dxy     :     0.018187
      f0      :     0.000489  f :     0.007013
      f+1     :     0.000655
      f-1     :     0.000833
      f+2     :     0.000915
      f-2     :     0.002723
      f+3     :     0.000676
      f-3     :     0.000723
  1 N s       :     3.425468  s :     3.425468
      pz      :     1.273450  p :     3.803383
      px      :     1.268363
      py      :     1.261570
      dz2     :     0.007897  d :     0.058812
      dxz     :     0.014684
      dyz     :     0.013627
      dx2y2   :     0.008578
      dxy     :     0.014025
      f0      :     0.000271  f :     0.003239
      f+1     :     0.000327
      f-1     :     0.000362
      f+2     :     0.000384
      f-2     :     0.001255
      f+3     :     0.000309
      f-3     :     0.000332
  2 H s       :     0.839906  s :     0.839906
      pz      :     0.008342  p :     0.021971
      px      :     0.007857
      py      :     0.005772
  3 H s       :     0.798815  s :     0.798815
      pz      :     0.006935  p :     0.022825
      px      :     0.007808
      py      :     0.008081
  4 H s       :     0.799488  s :     0.799488
      pz      :     0.007259  p :     0.022826
      px      :     0.007390
      py      :     0.008177
  5 H s       :     0.699891  s :     0.699891
      pz      :     0.009583  p :     0.033147
      px      :     0.011905
      py      :     0.011659
  6 H s       :     0.699132  s :     0.699132
      pz      :     0.011524  p :     0.033400
      px      :     0.010010
      py      :     0.011866
  7 H s       :     0.697934  s :     0.697934
      pz      :     0.018045  p :     0.048771
      px      :     0.016839
      py      :     0.013886
  8 Pbs       :     3.920277  s :     3.920277
      pz      :     2.366114  p :     7.083286
      px      :     2.361431
      py      :     2.355741
      dz2     :     2.028258  d :    10.121077
      dxz     :     2.040740
      dyz     :     2.017371
      dx2y2   :     2.018887
      dxy     :     2.015821
      f0      :     0.011306  f :     0.074585
      f+1     :     0.011451
      f-1     :     0.010489
      f+2     :     0.010349
      f-2     :     0.012421
      f+3     :     0.009380
      f-3     :     0.009188
  9 Cls       :     5.956837  s :     5.956837
      pz      :     3.692894  p :    11.378582
      px      :     3.838558
      py      :     3.847130
      dz2     :     0.013233  d :     0.055636
      dxz     :     0.011943
      dyz     :     0.012894
      dx2y2   :     0.008564
      dxy     :     0.009001
      f0      :     0.000543  f :     0.003493
      f+1     :     0.000564
      f-1     :     0.000600
      f+2     :     0.000467
      f-2     :     0.000532
      f+3     :     0.000394
      f-3     :     0.000393
 10 Cls       :     5.955354  s :     5.955354
      pz      :     3.927745  p :    11.734502
      px      :     3.932064
      py      :     3.874693
      dz2     :     0.008356  d :     0.045248
      dxz     :     0.009031
      dyz     :     0.009778
      dx2y2   :     0.008488
      dxy     :     0.009594
      f0      :     0.000420  f :     0.002944
      f+1     :     0.000389
      f-1     :     0.000398
      f+2     :     0.000405
      f-2     :     0.000506
      f+3     :     0.000433
      f-3     :     0.000393
 11 Cls       :     5.956536  s :     5.956536
      pz      :     3.825676  p :    11.387688
      px      :     3.705247
      py      :     3.856766
      dz2     :     0.009390  d :     0.055411
      dxz     :     0.012629
      dyz     :     0.009111
      dx2y2   :     0.012035
      dxy     :     0.012244
      f0      :     0.000469  f :     0.003486
      f+1     :     0.000494
      f-1     :     0.000403
      f+2     :     0.000521
      f-2     :     0.000543
      f+3     :     0.000504
      f-3     :     0.000552


                     *******************************
                     * LOEWDIN POPULATION ANALYSIS *
                     *******************************

----------------------
LOEWDIN ATOMIC CHARGES
----------------------
   0 C :   -0.287429
   1 N :    0.094271
   2 H :    0.117464
   3 H :    0.136183
   4 H :    0.135815
   5 H :    0.196684
   6 H :    0.195115
   7 H :    0.108629
   8 Pb:    0.275134
   9 Cl:   -0.137992
  10 Cl:   -0.689120
  11 Cl:   -0.144753

-------------------------------
LOEWDIN REDUCED ORBITAL CHARGES
-------------------------------
  0 C s       :     2.858024  s :     2.858024
      pz      :     1.037803  p :     3.091669
      px      :     1.049886
      py      :     1.003981
      dz2     :     0.028130  d :     0.299375
      dxz     :     0.079973
      dyz     :     0.079701
      dx2y2   :     0.032925
      dxy     :     0.078647
      f0      :     0.005430  f :     0.038361
      f+1     :     0.003996
      f-1     :     0.005789
      f+2     :     0.004369
      f-2     :     0.007661
      f+3     :     0.005156
      f-3     :     0.005958
  1 N s       :     3.008703  s :     3.008703
      pz      :     1.244010  p :     3.712345
      px      :     1.239902
      py      :     1.228433
      dz2     :     0.019762  d :     0.173689
      dxz     :     0.042618
      dyz     :     0.044504
      dx2y2   :     0.021200
      dxy     :     0.045605
      f0      :     0.001731  f :     0.010992
      f+1     :     0.001300
      f-1     :     0.001570
      f+2     :     0.001223
      f-2     :     0.002025
      f+3     :     0.001471
      f-3     :     0.001672
  2 H s       :     0.818500  s :     0.818500
      pz      :     0.023537  p :     0.064036
      px      :     0.022401
      py      :     0.018098
  3 H s       :     0.798699  s :     0.798699
      pz      :     0.019456  p :     0.065118
      px      :     0.023641
      py      :     0.022021
  4 H s       :     0.799083  s :     0.799083
      pz      :     0.021998  p :     0.065102
      px      :     0.020839
      py      :     0.022264
  5 H s       :     0.705787  s :     0.705787
      pz      :     0.031105  p :     0.097529
      px      :     0.033262
      py      :     0.033162
  6 H s       :     0.706223  s :     0.706223
      pz      :     0.032205  p :     0.098662
      px      :     0.032662
      py      :     0.033795
  7 H s       :     0.723334  s :     0.723334
      pz      :     0.062868  p :     0.168037
      px      :     0.058203
      py      :     0.046965
  8 Pbs       :     3.805525  s :     3.805525
      pz      :     2.471553  p :     7.367409
      px      :     2.462276
      py      :     2.433580
      dz2     :     2.087979  d :    10.410252
      dxz     :     2.126540
      dyz     :     2.072256
      dx2y2   :     2.059856
      dxy     :     2.063621
      f0      :     0.020856  f :     0.141680
      f+1     :     0.022057
      f-1     :     0.021508
      f+2     :     0.018653
      f-2     :     0.026491
      f+3     :     0.014241
      f-3     :     0.017874
  9 Cls       :     5.779162  s :     5.779162
      pz      :     3.676104  p :    11.287621
      px      :     3.799899
      py      :     3.811619
      dz2     :     0.016507  d :     0.066940
      dxz     :     0.013906
      dyz     :     0.018453
      dx2y2   :     0.008578
      dxy     :     0.009496
      f0      :     0.000550  f :     0.004269
      f+1     :     0.000749
      f-1     :     0.000995
      f+2     :     0.000488
      f-2     :     0.000695
      f+3     :     0.000403
      f-3     :     0.000390
 10 Cls       :     5.927335  s :     5.927335
      pz      :     3.916309  p :    11.710994
      px      :     3.921995
      py      :     3.872689
      dz2     :     0.008423  d :     0.047638
      dxz     :     0.009417
      dyz     :     0.010707
      dx2y2   :     0.008646
      dxy     :     0.010444
      f0      :     0.000455  f :     0.003153
      f+1     :     0.000392
      f-1     :     0.000405
      f+2     :     0.000417
      f-2     :     0.000609
      f+3     :     0.000475
      f-3     :     0.000400
 11 Cls       :     5.778836  s :     5.778836
      pz      :     3.788231  p :    11.294847
      px      :     3.686882
      py      :     3.819734
      dz2     :     0.010338  d :     0.066804
      dxz     :     0.015898
      dyz     :     0.009856
      dx2y2   :     0.013865
      dxy     :     0.016848
      f0      :     0.000628  f :     0.004266
      f+1     :     0.000495
      f-1     :     0.000400
      f+2     :     0.000630
      f-2     :     0.000752
      f+3     :     0.000495
      f-3     :     0.000865


                      *****************************
                      * MAYER POPULATION ANALYSIS *
                      *****************************

  NA   - Mulliken gross atomic population
  ZA   - Total nuclear charge
  QA   - Mulliken gross atomic charge
  VA   - Mayer's total valence
  BVA  - Mayer's bonded valence
  FA   - Mayer's free valence

  ATOM       NA         ZA         QA         VA         BVA        FA
  0 C      6.2561     6.0000    -0.2561     3.8605     3.7474     0.1132
  1 N      7.2909     7.0000    -0.2909     3.3612     3.2204     0.1408
  2 H      0.8619     1.0000     0.1381     0.9640     0.9448     0.0192
  3 H      0.8216     1.0000     0.1784     0.9775     0.9596     0.0179
  4 H      0.8223     1.0000     0.1777     0.9774     0.9595     0.0179
  5 H      0.7330     1.0000     0.2670     0.9429     0.9228     0.0202
  6 H      0.7325     1.0000     0.2675     0.9418     0.9219     0.0199
  7 H      0.7467     1.0000     0.2533     1.0978     1.0760     0.0218
  8 Pb    21.1992    22.0000     0.8008     2.2723     1.9079     0.3644
  9 Cl    17.3945    17.0000    -0.3945     1.2552     0.9874     0.2678
 10 Cl    17.7380    17.0000    -0.7380     0.7053     0.4576     0.2477
 11 Cl    17.4031    17.0000    -0.4031     1.2410     0.9738     0.2671

  Mayer bond orders larger than 0.1
B(  0-C ,  1-N ) :   0.8775 B(  0-C ,  2-H ) :   0.9471 B(  0-C ,  3-H ) :   0.9458 
B(  0-C ,  4-H ) :   0.9462 B(  1-N ,  5-H ) :   0.8787 B(  1-N ,  6-H ) :   0.8796 
B(  1-N ,  7-H ) :   0.6586 B(  7-H , 10-Cl) :   0.4129 B(  8-Pb,  9-Cl) :   0.9488 
B(  8-Pb, 11-Cl) :   0.9344 


-------
TIMINGS
-------

Total time                :  575.379 sec
Integral trafo            :    2.465 sec (  0.4%)
I/O of integrals          :    0.203 sec (  0.0%)
K(i,j) Operators          :    6.106 sec (  1.1%)
T(i,j) pair energies      :    1.115 sec (  0.2%)
V-calculation             :    0.013 sec (  0.0%)
V**(-1/2)                 :    0.033 sec (  0.0%)
Gamma(ia|P)               :    5.488 sec (  1.0%)
Gamma-Trafo               :    0.743 sec (  0.1%)
D(virtual)                :    2.409 sec (  0.4%)
D(internal)               :    3.827 sec (  0.7%)
W(virtual)                :    4.916 sec (  0.9%)
W(internal)               :   13.358 sec (  2.3%)
L(virtual)                :    4.774 sec (  0.8%)
L(internal)               :    0.191 sec (  0.0%)
G(D)                      :   11.807 sec (  2.1%)
G(Z)                      :   12.459 sec (  2.2%)
Z-Vector Solution         :  404.418 sec ( 70.3%)
Z-Vector Solution         :  404.418 sec ( 70.3%)
3-Index Derivative 
+ Separable RIJ part      :    3.782 sec (  0.7%)
2-Index Derivative 
+ Separable RIJ part      :    0.036 sec (  0.0%)
Separable Gradient (COSX) :   94.936 sec ( 16.5%)


---------------------------------------
MP2 TOTAL ENERGY:    -1669.535469802 Eh
---------------------------------------

The final MP2 gradient
  0:  -0.00295540  -0.00004662  -0.00319931
  1:  -0.00539567   0.05169094  -0.00966532
  2:   0.00208859  -0.00197981   0.00241527
  3:  -0.00122754   0.00296752   0.00596562
  4:   0.00598709   0.00318653  -0.00070111
  5:  -0.01267282  -0.01771891   0.00372830
  6:   0.00237317  -0.01635725  -0.01123336
  7:   0.02088502  -0.03565179   0.02193414
  8:   0.00716599  -0.00611501   0.00765595
  9:   0.00803219   0.00550246  -0.01738277
 10:  -0.00863523   0.01151847  -0.00917670
 11:  -0.01552035   0.00357885   0.00987390

-----------------------------------
NORM OF THE MP2 GRADIENT:  0.084753
-----------------------------------

Entering the calculation of the dispersion correction...

Checking the input atom types...

Done


-------------------------------------------------------------------------------
                          DFT DISPERSION CORRECTION                            
                                                                               
                                DFTD3 V2.1  Rev 6                               
                          USING Becke-Johnson damping                          
-------------------------------------------------------------------------------
The B2PLYP functional is recognized
Active option DFTDOPT                   ...         4   

molecular C6(AA) [au] = 4942.436506 


            DFT-D V3
 parameters
 s6 scaling factor         :     0.6400 
 a1 scaling factor         :     0.3065 
 s8 scaling factor         :     0.9147 
 a2 scaling factor         :     5.0570 
 ad hoc parameters k1-k3   :    16.0000     1.3333    -4.0000 

 Edisp/kcal,au: -6.140332229963  -0.009785241225 
 E6   /kcal   :  -2.943225591 
 E8   /kcal   :  -3.197106639 
 % E8         :  52.067323376 

-------------------------   ----------------
Dispersion correction           -0.009785241
-------------------------   ----------------


-------------------------   --------------------
FINAL SINGLE POINT ENERGY     -1669.545255043323
-------------------------   --------------------


                            ***************************************
                            *     ORCA property calculations      *
                            ***************************************


  WARNING: The energy has been calculated at the MP2 level but the densities
           used in the property calculations are still SCF densities
           MP2 response densities have not been calculated 
           use %mp2 Density relaxed end
           or  %mp2 Density unrelaxed end

                                    ---------------------
                                    Active property flags
                                    ---------------------
   (+) Dipole Moment


------------------------------------------------------------------------------
                       ORCA ELECTRIC PROPERTIES CALCULATION
------------------------------------------------------------------------------

Dipole Moment Calculation                       ... on
Quadrupole Moment Calculation                   ... off
Polarizability Calculation                      ... off
GBWName                                         ... PbMACl3_mp2_md2_7.orca.gbw
Electron density file                           ... PbMACl3_mp2_md2_7.orca.scfp.tmp

-------------
DIPOLE MOMENT
-------------
                                X             Y             Z
Electronic contribution:    -15.83699    -184.83383     -13.37801
Nuclear contribution   :     18.82318     181.21652      16.37899
                        -----------------------------------------
Total Dipole Moment    :      2.98619      -3.61730       3.00098
                        -----------------------------------------
Magnitude (a.u.)       :      5.56849
Magnitude (Debye)      :     14.15398


                         *** MP2 UNRELAXED DENSITY ***

------------------------------------------------------------------------------
                       ORCA ELECTRIC PROPERTIES CALCULATION
------------------------------------------------------------------------------

Dipole Moment Calculation                       ... on
Quadrupole Moment Calculation                   ... off
Polarizability Calculation                      ... off
GBWName                                         ... PbMACl3_mp2_md2_7.orca.gbw
Electron density file                           ... PbMACl3_mp2_md2_7.orca.pmp2ur

-------------
DIPOLE MOMENT
-------------
                                X             Y             Z
Electronic contribution:    -15.86072    -184.79816     -13.40146
Nuclear contribution   :     18.82318     181.21652      16.37899
                        -----------------------------------------
Total Dipole Moment    :      2.96245      -3.58164       2.97753
                        -----------------------------------------
Magnitude (a.u.)       :      5.51996
Magnitude (Debye)      :     14.03062


                           *** MP2 RELAXED DENSITY ***

------------------------------------------------------------------------------
                       ORCA ELECTRIC PROPERTIES CALCULATION
------------------------------------------------------------------------------

Dipole Moment Calculation                       ... on
Quadrupole Moment Calculation                   ... off
Polarizability Calculation                      ... off
GBWName                                         ... PbMACl3_mp2_md2_7.orca.gbw
Electron density file                           ... PbMACl3_mp2_md2_7.orca.pmp2re

-------------
DIPOLE MOMENT
-------------
                                X             Y             Z
Electronic contribution:    -15.92154    -184.71906     -13.46301
Nuclear contribution   :     18.82318     181.21652      16.37899
                        -----------------------------------------
Total Dipole Moment    :      2.90164      -3.50254       2.91598
                        -----------------------------------------
Magnitude (a.u.)       :      5.40280
Magnitude (Debye)      :     13.73283


Timings for individual modules:

Sum of individual times         ...      893.903 sec (=  14.898 min)
GTO integral calculation        ...        3.792 sec (=   0.063 min)   0.4 %
SCF iterations                  ...      313.566 sec (=   5.226 min)  35.1 %
MP2 module                      ...      576.545 sec (=   9.609 min)  64.5 %
                             ****ORCA TERMINATED NORMALLY****
TOTAL RUN TIME: 0 days 0 hours 14 minutes 55 seconds 397 msec
