
                                 *****************
                                 * O   R   C   A *
                                 *****************

           --- An Ab Initio, DFT and Semiempirical electronic structure package ---

                  #######################################################
                  #                        -***-                        #
                  #  Department of molecular theory and spectroscopy    #
                  #              Directorship: Frank Neese              #
                  # Max Planck Institute for Chemical Energy Conversion #
                  #                  D-45470 Muelheim/Ruhr              #
                  #                       Germany                       #
                  #                                                     #
                  #                  All rights reserved                #
                  #                        -***-                        #
                  #######################################################


                         Program Version 3.0.3 - RELEASE   -


 With contributions from (in alphabetic order):
   Ute Becker             : Parallelization
   Dmytro Bykov           : SCF Hessian
   Dmitry Ganyushin       : Spin-Orbit,Spin-Spin,Magnetic field MRCI
   Andreas Hansen         : Spin unrestricted coupled pair/coupled cluster methods
   Dimitrios Liakos       : Extrapolation schemes; parallel MDCI
   Robert Izsak           : Overlap fitted RIJCOSX, COSX-SCS-MP3
   Christian Kollmar      : KDIIS, OOCD, Brueckner-CCSD(T), CCSD density
   Simone Kossmann        : Meta GGA functionals, TD-DFT gradient, OOMP2, MP2 Hessian
   Taras Petrenko         : DFT Hessian,TD-DFT gradient, ASA and ECA modules, normal mode analysis, Resonance Raman, ABS, FL, XAS/XES, NRVS
   Christoph Reimann      : Effective Core Potentials
   Michael Roemelt        : Restricted open shell CIS
   Christoph Riplinger    : Improved optimizer, TS searches, QM/MM, DLPNO-CCSD
   Barbara Sandhoefer     : DKH picture change effects
   Igor Schapiro          : Molecular dynamics
   Kantharuban Sivalingam : CASSCF convergence, NEVPT2
   Boris Wezisla          : Elementary symmetry handling
   Frank Wennmohs         : Technical directorship


 We gratefully acknowledge several colleagues who have allowed us to
 interface, adapt or use parts of their codes:
   Stefan Grimme, W. Hujo, H. Kruse, T. Risthaus : VdW corrections, initial TS optimization,
                                                   DFT functionals, gCP
   Ed Valeev                                     : LibInt (2-el integral package), F12 methods
   Garnet Chan, S. Sharma, R. Olivares           : DMRG
   Ulf Ekstrom                                   : XCFun DFT Library
   Mihaly Kallay                                 : mrcc  (arbitrary order and MRCC methods)
   Andreas Klamt, Michael Diedenhofen            : otool_cosmo (COSMO solvation model)
   Frank Weinhold                                : gennbo (NPA and NBO analysis)
   Christopher J. Cramer and Donald G. Truhlar   : smd solvation model


 Your calculation uses the libint2 library for the computation of 2-el integrals
 For citations please refer to: http://libint.valeyev.net

 This ORCA versions uses:
   CBLAS   interface :  Fast vector & matrix operations
   LAPACKE interface :  Fast linear algebra routines
   SCALAPACK package :  Parallel linear algebra routines


Your calculation utilizes the basis: Ahlrichs-TZV
Cite in your paper:
H - Kr: A. Schaefer, H. Horn and R. Ahlrichs, J. Chem. Phys. 97, 2571 (1992).

The def2-TZV basis will be loaded
Cite in your paper:
 	F. Weigend, R. Ahlrichs, Phys. Chem. Chem. Phys. 2005, 7, 3297.

Your calculation utilizes the atom-pairwise dispersion correction
with the Becke-Johnson damping scheme (D3BJ)
Cite in your paper:
S.Grimme, S.Ehrlich, L.Goerigk, J Comput Chem, (2011), 32, 1456–1465 
S.Grimme, J.Antony, S.Ehrlich and H.Krieg, J.Chem.Phys., 132, (2010), 154104 
   

================================================================================
                                        WARNINGS
                       Please study these warnings very carefully!
================================================================================

WARNING: The RI method has been chosen with no auxiliary basis (AUX or GTOAUX in BASIS block)
        Standard TZV/J expansion basis used (GTOAUX=TZV_J)

Now building the actual basis set
cite the ECPs for Pb [SD(60,MDF)] as follows:
  B. Metz, H. Stoll, M. Dolg, J. Chem. Phys. 113, 2563 (2000).

ECP parameters for Pb [SD(60,MDF)] have been obtained from:
  pseudopotential library of the Stuttgart/Cologne group
  http://www.theochem.uni-stuttgart.de/pseudopotentials/

cite the ECP basis sets for Pb [DEF2-TZVP] as follows:
  F. Weigend, R. Ahlrichs; Phys. Chem. Chem. Phys. 7, 3297(2005).

ECP basis sets for Pb [DEF2-TZVP] have been obtained from:
  Turbomole basis set library
  ftp://ftp.chemie.uni-karlsruhe.de/pub/basen/



INFO   : the flag for use of LIBINT has been found!

================================================================================
                                       INPUT FILE
================================================================================
NAME = Pb2Cl11_6NH3CH3_-1_mp2_sp2_3.orca
|  1> ! RIJCOSX RI-B2PLYP D3BJ def2-TZVP ECP{def2-TZVP} TIGHTSCF Grid5 FinalGrid6 MORead
|  2> %maxcore 4000
|  3> %moinp "previous.gbw"
|  4> *xyz -1 1
|  5> C 3.321334 3.304660 2.430157 
|  6> N 2.356571 2.328752 1.891132 
|  7> H 3.929482 2.825089 3.202898 
|  8> H 2.779051 4.148026 2.867131 
|  9> H 3.970752 3.667461 1.628343 
| 10> H 1.712427 1.919960 2.626954 
| 11> H 2.798301 1.476145 1.466883 
| 12> H 1.726191 2.717573 1.143366 
| 13> Pb 0.044610 -0.196880 0.736926 
| 14> Cl 2.778912 -0.523475 0.809873 
| 15> Cl 0.268075 2.893160 -0.270155 
| 16> Cl 0.399868 0.661202 3.497951 
| 17> Cl -3.319849 -0.324404 -0.060641 
| 18> Cl -0.006686 -1.178421 -2.227417 
| 19> Cl -0.539733 -2.713063 1.852295 
| 20> N -2.185808 -3.054212 -0.959335 
| 21> C -3.018599 -3.892984 -1.852407 
| 22> H -2.697680 -2.199715 -0.614166 
| 23> H -1.345672 -2.675212 -1.453465 
| 24> H -3.863008 -4.284793 -1.282203 
| 25> H -2.403708 -4.719219 -2.215644 
| 26> H -3.366846 -3.277457 -2.686457 
| 27> H -1.855008 -3.591944 -0.148281 
| 28> Cl 3.302075 -4.781266 1.526498 
| 29> Cl 0.971413 -5.250102 4.856666 
| 30> Pb 0.317926 -5.511248 1.510558 
| 31> N 2.161285 -2.658962 3.515767 
| 32> C 3.006676 -1.740565 4.311813 
| 33> H 2.698023 -3.156655 2.770259 
| 34> H 1.390718 -2.163400 3.045648 
| 35> H 3.799912 -2.319606 4.793333 
| 36> H 2.384520 -1.246095 5.060700 
| 37> H 3.427402 -0.991699 3.638613 
| 38> H 1.731703 -3.427574 4.095222 
| 39> Cl 0.348484 -5.396525 -1.301151 
| 40> H -2.444419 -8.567556 -2.232135 
| 41> H -0.598109 -7.323819 -1.165277 
| 42> H -1.004862 -9.612620 -2.073837 
| 43> C -1.775778 -9.065444 -1.523604 
| 44> N -1.147567 -8.055720 -0.651573 
| 45> Cl -2.551187 -5.959537 1.083500 
| 46> H -1.842497 -7.478800 -0.094428 
| 47> H -0.483324 -8.457680 0.056334 
| 48> H -2.352281 -9.766255 -0.913124 
| 49> Cl 0.904600 -8.597973 1.615232 
| 50> H -3.020852 1.137851 -3.759427 
| 51> H -2.443836 0.935457 -1.388789 
| 52> C -2.421148 1.915242 -3.276964 
| 53> H -3.072919 2.741318 -2.978333 
| 54> N -1.760461 1.345922 -2.088558 
| 55> H -1.130632 0.530708 -2.323343 
| 56> H -1.666594 2.281032 -3.979276 
| 57> H -1.165922 2.035435 -1.571092 
| 58> H 3.622704 -8.508951 4.939340 
| 59> H 2.344608 -7.817453 2.937850 
| 60> C 4.032137 -7.791101 4.222778 
| 61> H 4.696529 -8.309487 3.525223 
| 62> N 2.932785 -7.146076 3.481813 
| 63> H 2.277052 -6.592786 4.110347 
| 64> H 4.597499 -7.025510 4.762093 
| 65> H 3.269849 -6.425562 2.787786 
| 66> *
| 67> 
| 68>                          ****END OF INPUT****
================================================================================

                       ****************************
                       * Single Point Calculation *
                       ****************************

---------------------------------
CARTESIAN COORDINATES (ANGSTROEM)
---------------------------------
  C      3.321334    3.304660    2.430157
  N      2.356571    2.328752    1.891132
  H      3.929482    2.825089    3.202898
  H      2.779051    4.148026    2.867131
  H      3.970752    3.667461    1.628343
  H      1.712427    1.919960    2.626954
  H      2.798301    1.476145    1.466883
  H      1.726191    2.717573    1.143366
  Pb     0.044610   -0.196880    0.736926
  Cl     2.778912   -0.523475    0.809873
  Cl     0.268075    2.893160   -0.270155
  Cl     0.399868    0.661202    3.497951
  Cl    -3.319849   -0.324404   -0.060641
  Cl    -0.006686   -1.178421   -2.227417
  Cl    -0.539733   -2.713063    1.852295
  N     -2.185808   -3.054212   -0.959335
  C     -3.018599   -3.892984   -1.852407
  H     -2.697680   -2.199715   -0.614166
  H     -1.345672   -2.675212   -1.453465
  H     -3.863008   -4.284793   -1.282203
  H     -2.403708   -4.719219   -2.215644
  H     -3.366846   -3.277457   -2.686457
  H     -1.855008   -3.591944   -0.148281
  Cl     3.302075   -4.781266    1.526498
  Cl     0.971413   -5.250102    4.856666
  Pb     0.317926   -5.511248    1.510558
  N      2.161285   -2.658962    3.515767
  C      3.006676   -1.740565    4.311813
  H      2.698023   -3.156655    2.770259
  H      1.390718   -2.163400    3.045648
  H      3.799912   -2.319606    4.793333
  H      2.384520   -1.246095    5.060700
  H      3.427402   -0.991699    3.638613
  H      1.731703   -3.427574    4.095222
  Cl     0.348484   -5.396525   -1.301151
  H     -2.444419   -8.567556   -2.232135
  H     -0.598109   -7.323819   -1.165277
  H     -1.004862   -9.612620   -2.073837
  C     -1.775778   -9.065444   -1.523604
  N     -1.147567   -8.055720   -0.651573
  Cl    -2.551187   -5.959537    1.083500
  H     -1.842497   -7.478800   -0.094428
  H     -0.483324   -8.457680    0.056334
  H     -2.352281   -9.766255   -0.913124
  Cl     0.904600   -8.597973    1.615232
  H     -3.020852    1.137851   -3.759427
  H     -2.443836    0.935457   -1.388789
  C     -2.421148    1.915242   -3.276964
  H     -3.072919    2.741318   -2.978333
  N     -1.760461    1.345922   -2.088558
  H     -1.130632    0.530708   -2.323343
  H     -1.666594    2.281032   -3.979276
  H     -1.165922    2.035435   -1.571092
  H      3.622704   -8.508951    4.939340
  H      2.344608   -7.817453    2.937850
  C      4.032137   -7.791101    4.222778
  H      4.696529   -8.309487    3.525223
  N      2.932785   -7.146076    3.481813
  H      2.277052   -6.592786    4.110347
  H      4.597499   -7.025510    4.762093
  H      3.269849   -6.425562    2.787786

----------------------------
CARTESIAN COORDINATES (A.U.)
----------------------------
  NO LB      ZA    FRAG    MASS        X           Y           Z
   0 C     6.0000    0    12.011          6.276411659281206          6.244902365724204          4.592331192431667
   1 N     7.0000    0    14.007          4.453273805140938          4.400703513821383          3.573721563094765
   2 H     1.0000    0     1.008          7.425644828173148          5.338644513953455          6.052600054884109
   3 H     1.0000    0     1.008          5.251645302199988          7.838633136384834          5.418092380075772
   4 H     1.0000    0     1.008          7.503633825720078          6.930496896836967          3.077122322087733
   5 H     1.0000    0     1.008          3.236018054332367          3.628198588083447          4.964223626408968
   6 H     1.0000    0     1.008          5.288022530277972          2.789509783957186          2.772007140504807
   7 H     1.0000    0     1.008          3.262028244839660          5.135468718938777          2.160648610837006
   8 Pb   22.0000*   0   207.200  0.084300682834227  -0.372049281246416  1.392588320966052
   9 Cl   17.0000    0    35.453          5.251382630267373         -0.989224387954427          1.530438173257206
  10 Cl   17.0000    0    35.453          0.506588333350940          5.467280061615608         -0.510518963709496
  11 Cl   17.0000    0    35.453          0.755641009718823          1.249490699200999          6.610169419875977
  12 Cl   17.0000    0    35.453         -6.273605415972334         -0.613034716748590         -0.114594882487119
  13 Cl   17.0000    0    35.453         -0.012634708931397         -2.226892960461615         -4.209208116040473
  14 Cl   17.0000    0    35.453         -1.019947555439719         -5.126946054074793          3.500330269231665
  15 N     7.0000    0    14.007         -4.130578501334144         -5.771624234935894         -1.812880420685344
  16 C     6.0000    0    12.011         -5.704325418128557         -7.356673603737290         -3.500541918558664
  17 H     1.0000    0     1.008         -5.097876396956682         -4.156858922678586         -1.160605540765880
  18 H     1.0000    0     1.008         -2.542951546086079         -5.055418030179740         -2.746650795239852
  19 H     1.0000    0     1.008         -7.300027173146867         -8.097085310542841         -2.423012518092230
  20 H     1.0000    0     1.008         -4.542349825915584         -8.918031475997715         -4.186960370265818
  21 H     1.0000    0     1.008         -6.362416875088230         -6.193496145703143         -5.076668000555684
  22 H     1.0000    0     1.008         -3.505457096232993         -6.787790448381636         -0.280210480863977
  23 Cl   17.0000    0    35.453          6.240017423668017         -9.035283313429126          2.884663163978523
  24 Cl   17.0000    0    35.453          1.835704532930845         -9.921254955152230          9.177768663926789
  25 Pb   22.0000*   0   207.200  0.600793070853048  -10.414749376121231  2.854540929403818
  26 N     7.0000    0    14.007          4.084236747351992         -5.024709980503519          6.643836780677917
  27 C     6.0000    0    12.011          5.681794213433814         -3.289191168288643          8.148145710681394
  28 H     1.0000    0     1.008          5.098524573020617         -5.965213449273189          5.235030830030552
  29 H     1.0000    0     1.008          2.628076149514695         -4.088233518125236          5.755440620324992
  30 H     1.0000    0     1.008          7.180793013000971         -4.383420078600539          9.058086638687154
  31 H     1.0000    0     1.008          4.506089760857903         -2.354778286848602          9.563337045935278
  32 H     1.0000    0     1.008          6.476851130853966         -1.874039517283571          6.875982077325607
  33 H     1.0000    0     1.008          3.272444415289833         -6.477176163749000          7.738848037609255
  34 Cl   17.0000    0    35.453          0.658539322053413        -10.197954324859381         -2.458819048877770
  35 H     1.0000    0     1.008         -4.619282466553652        -16.190334477033822         -4.218123843940313
  36 H     1.0000    0     1.008         -1.130262208233506        -13.840012164409009         -2.202054400157354
  37 H     1.0000    0     1.008         -1.898913982384377        -18.165219229454102         -3.918983976392847
  38 C     6.0000    0    12.011         -3.355734094642413        -17.131206442399606         -2.879194296546955
  39 N     7.0000    0    14.007         -2.168587350325609        -15.223104611552108         -1.231294526257472
  40 Cl   17.0000    0    35.453         -4.821044746420156        -11.261892814970654          2.047518266103676
  41 H     1.0000    0     1.008         -3.481814732571504        -14.132883810370256         -0.178443059373916
  42 H     1.0000    0     1.008         -0.913349993951355        -15.982698928343092          0.106455832028320
  43 H     1.0000    0     1.008         -4.445166880026416        -18.455547304039094         -1.725554286310709
  44 Cl   17.0000    0    35.453          1.709446260745164        -16.247814276849304          3.052346122745891
  45 H     1.0000    0     1.008         -5.708582971108281          2.150226771208430         -7.104287450469170
  46 H     1.0000    0     1.008         -4.618180756217576          1.767757540059572         -2.624430867802361
  47 C     6.0000    0    12.011         -4.575306649691171          3.619282860183606         -6.192564510719120
  48 H     1.0000    0     1.008         -5.806975341723159          5.180340265988738         -5.628233705620083
  49 N     7.0000    0    14.007         -3.326789159449141          2.543423977619559         -3.946802634810302
  50 H     1.0000    0     1.008         -2.136584838247653          1.002892777081080         -4.390481985163002
  51 H     1.0000    0     1.008         -3.149406236436354          4.310525782710661         -7.519741851285623
  52 H     1.0000    0     1.008         -2.203273273513733          3.846414713398003         -2.968933611194607
  53 H     1.0000    0     1.008          6.845918424261054        -16.079587076955367          9.333999882322594
  54 H     1.0000    0     1.008          4.430667011400838        -14.772845234801091          5.551731922540549
  55 C     6.0000    0    12.011          7.619634664450833        -14.723047171719998          7.979893944347715
  56 H     1.0000    0     1.008          8.875153590019043        -15.702654743378901          6.661706031000277
  57 N     7.0000    0    14.007          5.542160459672238        -13.504126572187442          6.579673019526755
  58 H     1.0000    0     1.008          4.303004672697654        -12.458559999550154          7.767430145384815
  59 H     1.0000    0     1.008          8.688014010976820        -13.276289851125092          8.999051594263456
  60 H     1.0000    0     1.008          6.179119109276271        -12.142552436531306          5.268152059979791
* core charge reduced due to ECP

--------------------------------
INTERNAL COORDINATES (ANGSTROEM)
--------------------------------
 C      0   0   0   0.000000     0.000     0.000
 N      1   0   0   1.474351     0.000     0.000
 H      1   2   0   1.094057   109.379     0.000
 H      1   2   3   1.093747   109.392   240.247
 H      1   2   3   1.093743   109.882   120.181
 H      2   1   3   1.059937   113.525    58.337
 H      2   1   3   1.049786   114.205   300.796
 H      2   1   3   1.052480   114.026   179.570
 Pb     6   2   1   3.291630    99.052   182.829
 Cl     7   2   1   2.104880   153.358   159.263
 Cl     8   2   1   2.038376   162.355   182.411
 Cl     6   2   1   2.016412   159.425   197.357
 Cl     9   6   2   3.460052   130.447   242.840
 Cl     9   6   2   3.123041   139.065     2.106
 Cl     9   6   2   2.813660   116.918   140.054
 N     13   9   6   3.089588    75.090   193.127
 C     16  13   9   1.481437   117.987   194.217
 H     16  13   9   1.054191     8.252   143.972
 H     16  13   9   1.045770    96.437   313.154
 H     17  16  13   1.091638   108.854   288.878
 H     17  16  13   1.092106   108.201   169.674
 H     17  16  13   1.093521   108.670    49.565
 H     16  13   9   1.027810   110.540    64.800
 Cl    10   7   2   4.349257   151.339   271.383
 Cl    24  10   7   4.091676   100.239    51.172
 Pb    15   9   6   2.946558   137.972   251.082
 N     24  10   7   3.124543    52.845    35.640
 C     27  24  10   1.480482   123.724   279.963
 H     27  24  10   1.044781    15.112   326.127
 H     27  24  10   1.029741   108.025    53.625
 H     28  27  24   1.093789   108.810   311.638
 H     28  27  24   1.091975   108.924   191.056
 H     28  27  24   1.091334   108.308    72.168
 H     27  24  10   1.054075    90.201   161.889
 Cl    26  15   9   2.814214    94.607   317.809
 H     21  17  16   3.848588   138.761   122.863
 H     35  26  15   2.151502    84.008   223.112
 H     36  21  17   1.785929   125.185   216.379
 C     38  36  21   1.093832    35.291    87.016
 N     37  35  26   1.049512   152.369    20.982
 Cl    23  16  13   2.758160   136.077   115.844
 H     40  37  35   1.061214   102.750    37.004
 H     40  37  35   1.050677   105.403   286.662
 H     39  38  36   1.093699   109.375   119.736
 Cl    43  40  37   2.091932   161.296    52.688
 H     13   9   6   3.988559    97.317   103.492
 H     13   9   6   2.029440    73.037    85.833
 C     46  13   9   1.093962    83.836   311.021
 H     48  46  13   1.093795   109.295   269.115
 N     47  13   9   1.060735   161.814    44.897
 H     50  47  13   1.056590   103.419    12.206
 H     48  46  13   1.093799   109.429   149.213
 H     50  47  13   1.047223   107.131   260.237
 H     25  24  10   4.201937    75.254   201.796
 H     45  43  40   2.105268   153.781   343.515
 C     54  25  24   1.093803    73.400    15.204
 H     56  54  25   1.093949   109.516   202.647
 N     55  45  43   1.045273   161.797    13.568
 H     58  55  45   1.063565   107.143    62.556
 H     56  54  25   1.093903   109.256    82.840
 H     58  55  45   1.055664   106.017   312.721

---------------------------
INTERNAL COORDINATES (A.U.)
---------------------------
 C      0   0   0   0.000000     0.000     0.000
 N      1   0   0   2.786120     0.000     0.000
 H      1   2   0   2.067468   109.379     0.000
 H      1   2   3   2.066883   109.392   240.247
 H      1   2   3   2.066875   109.882   120.181
 H      2   1   3   2.002991   113.525    58.337
 H      2   1   3   1.983809   114.205   300.796
 H      2   1   3   1.988899   114.026   179.570
 Pb     6   2   1   6.220280    99.052   182.829
 Cl     7   2   1   3.977646   153.358   159.263
 Cl     8   2   1   3.851971   162.355   182.411
 Cl     6   2   1   3.810467   159.425   197.357
 Cl     9   6   2   6.538551   130.447   242.840
 Cl     9   6   2   5.901692   139.065     2.106
 Cl     9   6   2   5.317047   116.918   140.054
 N     13   9   6   5.838474    75.090   193.127
 C     16  13   9   2.799511   117.987   194.217
 H     16  13   9   1.992133     8.252   143.972
 H     16  13   9   1.976218    96.437   313.154
 H     17  16  13   2.062897   108.854   288.878
 H     17  16  13   2.063782   108.201   169.674
 H     17  16  13   2.066456   108.670    49.565
 H     16  13   9   1.942279   110.540    64.800
 Cl    10   7   2   8.218904   151.339   271.383
 Cl    24  10   7   7.732147   100.239    51.172
 Pb    15   9   6   5.568187   137.972   251.082
 N     24  10   7   5.904530    52.845    35.640
 C     27  24  10   2.797706   123.724   279.963
 H     27  24  10   1.974351    15.112   326.127
 H     27  24  10   1.945929   108.025    53.625
 H     28  27  24   2.066961   108.810   311.638
 H     28  27  24   2.063535   108.924   191.056
 H     28  27  24   2.062322   108.308    72.168
 H     27  24  10   1.991912    90.201   161.889
 Cl    26  15   9   5.318094    94.607   317.809
 H     21  17  16   7.272777   138.761   122.863
 H     35  26  15   4.065750    84.008   223.112
 H     36  21  17   3.374916   125.185   216.379
 C     38  36  21   2.067044    35.291    87.016
 N     37  35  26   1.983290   152.369    20.982
 Cl    23  16  13   5.212167   136.077   115.844
 H     40  37  35   2.005404   102.750    37.004
 H     40  37  35   1.985492   105.403   286.662
 H     39  38  36   2.066792   109.375   119.736
 Cl    43  40  37   3.953178   161.296    52.688
 H     13   9   6   7.537285    97.317   103.492
 H     13   9   6   3.835085    73.037    85.833
 C     46  13   9   2.067288    83.836   311.021
 H     48  46  13   2.066973   109.295   269.115
 N     47  13   9   2.004499   161.814    44.897
 H     50  47  13   1.996666   103.419    12.206
 H     48  46  13   2.066981   109.429   149.213
 H     50  47  13   1.978965   107.131   260.237
 H     25  24  10   7.940510    75.254   201.796
 H     45  43  40   3.978380   153.781   343.515
 C     54  25  24   2.066988    73.400    15.204
 H     56  54  25   2.067263   109.516   202.647
 N     55  45  43   1.975279   161.797    13.568
 H     58  55  45   2.009847   107.143    62.556
 H     56  54  25   2.067178   109.256    82.840
 H     58  55  45   1.994915   106.017   312.721

---------------------
BASIS SET INFORMATION
---------------------
There are 5 groups of distinct atoms

 Group   1 Type C   : 11s6p2d1f contracted to 5s3p2d1f pattern {62111/411/11/1}
 Group   2 Type N   : 11s6p2d1f contracted to 5s3p2d1f pattern {62111/411/11/1}
 Group   3 Type H   : 5s1p contracted to 3s1p pattern {311/1}
 Group   4 Type Pb  : 10s9p8d2f contracted to 6s5p3d2f pattern {421111/33111/611/11}
 Group   5 Type Cl  : 14s9p3d1f contracted to 5s5p2d1f pattern {73211/51111/21/1}

Atom   0C    basis set group =>   1
Atom   1N    basis set group =>   2
Atom   2H    basis set group =>   3
Atom   3H    basis set group =>   3
Atom   4H    basis set group =>   3
Atom   5H    basis set group =>   3
Atom   6H    basis set group =>   3
Atom   7H    basis set group =>   3
Atom   8Pb   basis set group =>   4
Atom   9Cl   basis set group =>   5
Atom  10Cl   basis set group =>   5
Atom  11Cl   basis set group =>   5
Atom  12Cl   basis set group =>   5
Atom  13Cl   basis set group =>   5
Atom  14Cl   basis set group =>   5
Atom  15N    basis set group =>   2
Atom  16C    basis set group =>   1
Atom  17H    basis set group =>   3
Atom  18H    basis set group =>   3
Atom  19H    basis set group =>   3
Atom  20H    basis set group =>   3
Atom  21H    basis set group =>   3
Atom  22H    basis set group =>   3
Atom  23Cl   basis set group =>   5
Atom  24Cl   basis set group =>   5
Atom  25Pb   basis set group =>   4
Atom  26N    basis set group =>   2
Atom  27C    basis set group =>   1
Atom  28H    basis set group =>   3
Atom  29H    basis set group =>   3
Atom  30H    basis set group =>   3
Atom  31H    basis set group =>   3
Atom  32H    basis set group =>   3
Atom  33H    basis set group =>   3
Atom  34Cl   basis set group =>   5
Atom  35H    basis set group =>   3
Atom  36H    basis set group =>   3
Atom  37H    basis set group =>   3
Atom  38C    basis set group =>   1
Atom  39N    basis set group =>   2
Atom  40Cl   basis set group =>   5
Atom  41H    basis set group =>   3
Atom  42H    basis set group =>   3
Atom  43H    basis set group =>   3
Atom  44Cl   basis set group =>   5
Atom  45H    basis set group =>   3
Atom  46H    basis set group =>   3
Atom  47C    basis set group =>   1
Atom  48H    basis set group =>   3
Atom  49N    basis set group =>   2
Atom  50H    basis set group =>   3
Atom  51H    basis set group =>   3
Atom  52H    basis set group =>   3
Atom  53H    basis set group =>   3
Atom  54H    basis set group =>   3
Atom  55C    basis set group =>   1
Atom  56H    basis set group =>   3
Atom  57N    basis set group =>   2
Atom  58H    basis set group =>   3
Atom  59H    basis set group =>   3
Atom  60H    basis set group =>   3
-------------------------------
AUXILIARY BASIS SET INFORMATION
-------------------------------
There are 5 groups of distinct atoms

 Group   1 Type C   : 12s5p4d2f1g contracted to 6s4p3d1f1g pattern {711111/2111/211/2/1}
 Group   2 Type N   : 12s5p4d2f1g contracted to 6s4p3d1f1g pattern {711111/2111/211/2/1}
 Group   3 Type H   : 5s2p1d contracted to 3s1p1d pattern {311/2/1}
 Group   4 Type Pb  : 31s12p8d6f3g contracted to 31s12p8d6f3g pattern {1111111111111111111111111111111/111111111111/11111111/111111/111}
 Group   5 Type Cl  : 14s5p5d2f1g contracted to 8s4p3d1f1g pattern {71111111/2111/311/2/1}

Atom   0C    basis set group =>   1
Atom   1N    basis set group =>   2
Atom   2H    basis set group =>   3
Atom   3H    basis set group =>   3
Atom   4H    basis set group =>   3
Atom   5H    basis set group =>   3
Atom   6H    basis set group =>   3
Atom   7H    basis set group =>   3
Atom   8Pb   basis set group =>   4
Atom   9Cl   basis set group =>   5
Atom  10Cl   basis set group =>   5
Atom  11Cl   basis set group =>   5
Atom  12Cl   basis set group =>   5
Atom  13Cl   basis set group =>   5
Atom  14Cl   basis set group =>   5
Atom  15N    basis set group =>   2
Atom  16C    basis set group =>   1
Atom  17H    basis set group =>   3
Atom  18H    basis set group =>   3
Atom  19H    basis set group =>   3
Atom  20H    basis set group =>   3
Atom  21H    basis set group =>   3
Atom  22H    basis set group =>   3
Atom  23Cl   basis set group =>   5
Atom  24Cl   basis set group =>   5
Atom  25Pb   basis set group =>   4
Atom  26N    basis set group =>   2
Atom  27C    basis set group =>   1
Atom  28H    basis set group =>   3
Atom  29H    basis set group =>   3
Atom  30H    basis set group =>   3
Atom  31H    basis set group =>   3
Atom  32H    basis set group =>   3
Atom  33H    basis set group =>   3
Atom  34Cl   basis set group =>   5
Atom  35H    basis set group =>   3
Atom  36H    basis set group =>   3
Atom  37H    basis set group =>   3
Atom  38C    basis set group =>   1
Atom  39N    basis set group =>   2
Atom  40Cl   basis set group =>   5
Atom  41H    basis set group =>   3
Atom  42H    basis set group =>   3
Atom  43H    basis set group =>   3
Atom  44Cl   basis set group =>   5
Atom  45H    basis set group =>   3
Atom  46H    basis set group =>   3
Atom  47C    basis set group =>   1
Atom  48H    basis set group =>   3
Atom  49N    basis set group =>   2
Atom  50H    basis set group =>   3
Atom  51H    basis set group =>   3
Atom  52H    basis set group =>   3
Atom  53H    basis set group =>   3
Atom  54H    basis set group =>   3
Atom  55C    basis set group =>   1
Atom  56H    basis set group =>   3
Atom  57N    basis set group =>   2
Atom  58H    basis set group =>   3
Atom  59H    basis set group =>   3
Atom  60H    basis set group =>   3

-------------------------
ECP PARAMETER INFORMATION
-------------------------

 Group 1, Type Pb ECP SD(60,MDF) (replacing 60 core electrons, lmax=5)

Atom   8Pb   ECP group =>   1
Atom  25Pb   ECP group =>   1


------------------------------------------------------------------------------
                           ORCA GTO INTEGRAL CALCULATION
                           -- RI-GTO INTEGRALS CHOSEN --
------------------------------------------------------------------------------

                         BASIS SET STATISTICS AND STARTUP INFO

Gaussian basis set:
 # of primitive gaussian shells          ...  811
 # of primitive gaussian functions       ... 1715
 # of contracted shells                  ...  451
 # of contracted basis functions         ... 1095
 Highest angular momentum                ...    3
 Maximum contraction depth               ...    7
Auxiliary gaussian basis set:
 # of primitive gaussian shells          ...  993
 # of primitive gaussian functions       ... 2615
 # of contracted shells                  ...  667
 # of contracted aux-basis functions     ... 1897
 Highest angular momentum                ...    4
 Maximum contraction depth               ...    7
Ratio of auxiliary to basis functions    ...  1.73
Integral package used                  ... LIBINT
 One Electron integrals                  
   ECP integrals                         ... done
 Ordering auxiliary basis shells         ... done
 Integral threshhold             Thresh  ...  2.500e-11
 Primitive cut-off               TCut    ...  2.500e-12
 Pre-screening matrix                    ... done
 Shell pair data                         ... 
 Ordering of the shell pairs             ... done (   0.011 sec) 48323 of 101926 pairs
 Determination of significant pairs      ... done (   0.000 sec)
 Creation of shell pair data             ... done (   0.015 sec)
 Storage of shell pair data              ... done (   0.008 sec)
 Shell pair data done in (   0.034 sec)
 Computing two index integrals           ... done
 Cholesky decomposition of the V-matrix  ... done


Timings:
 Total evaluation time                   ...   6.649 sec (  0.111 min)
 One electron matrix time                ...   4.276 sec (  0.071 min) = 64.3%
 Schwartz matrix evaluation time         ...   1.953 sec (  0.033 min) = 29.4%
 Two index repulsion integral time       ...   0.138 sec (  0.002 min) =  2.1%
 Cholesky decomposition of V             ...   0.218 sec (  0.004 min) =  3.3%
 Three index repulsion integral time     ...   0.000 sec (  0.000 min) =  0.0%

-------------------------------------------------------------------------------
                                 ORCA SCF
-------------------------------------------------------------------------------

------------
SCF SETTINGS
------------
Hamiltonian:
 Density Functional     Method          .... DFT(GTOs)
 Exchange Functional    Exchange        .... B88
   X-Alpha parameter    XAlpha          ....  0.666667
   Becke's b parameter  XBeta           ....  0.004200
 Correlation Functional Correlation     .... LYP
 LDA part of GGA corr.  LDAOpt          .... VWN-3
 Gradients option       PostSCFGGA      .... off
 Hybrid DFT is turned on
   Fraction HF Exchange ScalHFX         ....  0.530000
   Scaling of DF-GGA-X  ScalDFX         ....  0.470000
   Scaling of DF-GGA-C  ScalDFC         ....  0.730000
   Scaling of DF-LDA-C  ScalLDAC        ....  0.730000
   Perturbative correction              ....  0.270000
 RI-approximation to the Coulomb term is turned on
   Number of auxiliary basis functions  .... 1897
   RIJ-COSX (HFX calculated with COS-X)).... on


General Settings:
 Integral files         IntName         .... Pb2Cl11_6NH3CH3_-1_mp2_sp2_3.orca
 Hartree-Fock type      HFTyp           .... RHF
 Total Charge           Charge          ....   -1
 Multiplicity           Mult            ....    1
 Number of Electrons    NEL             ....  346
 Basis Dimension        Dim             .... 1095
 Nuclear Repulsion      ENuc            ....   5901.0735619135 Eh

Convergence Acceleration:
 DIIS                   CNVDIIS         .... on
   Start iteration      DIISMaxIt       ....    12
   Startup error        DIISStart       ....  0.200000
   # of expansion vecs  DIISMaxEq       ....     5
   Bias factor          DIISBfac        ....   1.050
   Max. coefficient     DIISMaxC        ....  10.000
 Newton-Raphson         CNVNR           .... off
 SOSCF                  CNVSOSCF        .... on
   Start iteration      SOSCFMaxIt      ....   150
   Startup grad/error   SOSCFStart      ....  0.003300
 Level Shifting         CNVShift        .... on
   Level shift para.    LevelShift      ....    0.2500
   Turn off err/grad.   ShiftErr        ....    0.0010
 Zerner damping         CNVZerner       .... off
 Static damping         CNVDamp         .... on
   Fraction old density DampFac         ....    0.7000
   Max. Damping (<1)    DampMax         ....    0.9800
   Min. Damping (>=0)   DampMin         ....    0.0000
   Turn off err/grad.   DampErr         ....    0.1000
 Fernandez-Rico         CNVRico         .... off

SCF Procedure:
 Maximum # iterations   MaxIter         ....   125
 SCF integral mode      SCFMode         .... Direct
   Integral package                     .... LIBINT
 Reset frequeny         DirectResetFreq ....    20
 Integral Threshold     Thresh          ....  2.500e-11 Eh
 Primitive CutOff       TCut            ....  2.500e-12 Eh

Convergence Tolerance:
 Convergence Check Mode ConvCheckMode   .... Total+1el-Energy
 Energy Change          TolE            ....  1.000e-08 Eh
 1-El. energy change                    ....  1.000e-05 Eh
 Orbital Gradient       TolG            ....  1.000e-05
 Orbital Rotation angle TolX            ....  1.000e-05
 DIIS Error             TolErr          ....  5.000e-07


Diagonalization of the overlap matrix:
Smallest eigenvalue                        ... 8.182e-04
Time for diagonalization                   ...    0.561 sec
Threshold for overlap eigenvalues          ... 1.000e-08
Number of eigenvalues below threshold      ... 0
Time for construction of square roots      ...    0.317 sec
Total time needed                          ...    0.889 sec

---------------------
INITIAL GUESS: MOREAD
---------------------
Guess MOs are being read from file: previous.gbw
Input Geometry matches current geometry (good)
Input basis set matches current basis set (good)
MOs were renormalized
MOs were reorthogonalized (Cholesky)
                      ------------------
                      INITIAL GUESS DONE (   1.0 sec)
                      ------------------
-------------------
DFT GRID GENERATION
-------------------

General Integration Accuracy     IntAcc      ...  5.010
Radial Grid Type                 RadialGrid  ... Gauss-Chebyshev
Angular Grid (max. acc.)         AngularGrid ... Lebedev-434
Angular grid pruning method      GridPruning ... 3 (G Style)
Weight generation scheme         WeightScheme... Becke
Basis function cutoff            BFCut       ...    1.0000e-11
Integration weight cutoff        WCut        ...    1.0000e-14
Grids for H and He will be reduced by one unit

# of grid points (after initial pruning)     ... 536944 (   0.5 sec)
# of grid points (after weights+screening)   ... 471491 (  13.1 sec)
nearest neighbour list constructed           ...    0.0 sec
Grid point re-assignment to atoms done       ...    0.1 sec
Grid point division into batches done        ...    3.3 sec
Reduced shell lists constructed in   32.6 sec

Total number of grid points                  ...   471491
Total number of batches                      ...     7397
Average number of points per batch           ...       63
Average number of grid points per atom       ...     7729
Average number of shells per batch           ...   108.17 (23.98%)
Average number of basis functions per batch  ...   250.96 (22.92%)
Average number of large shells per batch     ...    63.65 (58.85%)
Average number of large basis fcns per batch ...   150.37 (59.92%)
Maximum spatial batch extension              ...  29.44, 29.66, 28.31 au
Average spatial batch extension              ...   1.80,  1.76,  1.81 au

Time for grid setup =   46.223 sec

--------------------
COSX GRID GENERATION
--------------------

General Integration Accuracy     IntAcc      ...  3.340
Radial Grid Type                 RadialGrid  ... Gauss-Chebyshev
Angular Grid (max. acc.)         AngularGrid ... Lebedev-50
Angular grid pruning method      GridPruning ... 3 (G Style)
Weight generation scheme         WeightScheme... Becke
Basis function cutoff            BFCut       ...    1.0000e-11
Integration weight cutoff        WCut        ...    1.0000e-14
Grids for H and He will be reduced by one unit

# of grid points (after initial pruning)     ...  28950 (   0.0 sec)
# of grid points (after weights+screening)   ...  26073 (   0.7 sec)
nearest neighbour list constructed           ...    0.0 sec
Grid point re-assignment to atoms done       ...    0.0 sec
Grid point division into batches done        ...    0.0 sec
Reduced shell lists constructed in    2.4 sec

Total number of grid points                  ...    26073
Total number of batches                      ...      439
Average number of points per batch           ...       59
Average number of grid points per atom       ...      427
Average number of shells per batch           ...   138.82 (30.78%)
Average number of basis functions per batch  ...   329.40 (30.08%)
Average number of large shells per batch     ...    81.88 (58.98%)
Average number of large basis fcns per batch ...   196.08 (59.53%)
Maximum spatial batch extension              ...  22.07, 23.18, 23.88 au
Average spatial batch extension              ...   4.47,  4.32,  4.61 au

Overlap Fitting                  UseSFitting ... on
Constructing numerical overlap ... done (      1.2 sec)
Inverting numerical overlap    ... done (      0.1 sec)
Obtaining analytic overlap     ... done (      0.0 sec)
Final contraction and storage  ... done (      0.2 sec)


General Integration Accuracy     IntAcc      ...  3.670
Radial Grid Type                 RadialGrid  ... Gauss-Chebyshev
Angular Grid (max. acc.)         AngularGrid ... Lebedev-50
Angular grid pruning method      GridPruning ... 3 (G Style)
Weight generation scheme         WeightScheme... Becke
Basis function cutoff            BFCut       ...    1.0000e-11
Integration weight cutoff        WCut        ...    1.0000e-14
Grids for H and He will be reduced by one unit

# of grid points (after initial pruning)     ...  36590 (   0.0 sec)
# of grid points (after weights+screening)   ...  32864 (   0.9 sec)
nearest neighbour list constructed           ...    0.0 sec
Grid point re-assignment to atoms done       ...    0.0 sec
Grid point division into batches done        ...    0.0 sec
Reduced shell lists constructed in    2.8 sec

Total number of grid points                  ...    32864
Total number of batches                      ...      538
Average number of points per batch           ...       61
Average number of grid points per atom       ...      539
Average number of shells per batch           ...   134.40 (29.80%)
Average number of basis functions per batch  ...   317.92 (29.03%)
Average number of large shells per batch     ...    79.39 (59.07%)
Average number of large basis fcns per batch ...   189.70 (59.67%)
Maximum spatial batch extension              ...  23.81, 22.67, 24.76 au
Average spatial batch extension              ...   4.26,  3.98,  4.26 au

Overlap Fitting                  UseSFitting ... on
Constructing numerical overlap ... done (      1.5 sec)
Inverting numerical overlap    ... done (      0.1 sec)
Obtaining analytic overlap     ... done (      0.0 sec)
Final contraction and storage  ... done (      0.2 sec)


General Integration Accuracy     IntAcc      ...  4.010
Radial Grid Type                 RadialGrid  ... Gauss-Chebyshev
Angular Grid (max. acc.)         AngularGrid ... Lebedev-110
Angular grid pruning method      GridPruning ... 3 (G Style)
Weight generation scheme         WeightScheme... Becke
Basis function cutoff            BFCut       ...    1.0000e-11
Integration weight cutoff        WCut        ...    1.0000e-14
Grids for H and He will be reduced by one unit

# of grid points (after initial pruning)     ...  66396 (   0.0 sec)
# of grid points (after weights+screening)   ...  59866 (   1.6 sec)
nearest neighbour list constructed           ...    0.0 sec
Grid point re-assignment to atoms done       ...    0.0 sec
Grid point division into batches done        ...    0.1 sec
Reduced shell lists constructed in    5.1 sec

Total number of grid points                  ...    59866
Total number of batches                      ...      967
Average number of points per batch           ...       61
Average number of grid points per atom       ...      981
Average number of shells per batch           ...   128.48 (28.49%)
Average number of basis functions per batch  ...   302.89 (27.66%)
Average number of large shells per batch     ...    76.11 (59.24%)
Average number of large basis fcns per batch ...   181.79 (60.02%)
Maximum spatial batch extension              ...  28.06, 21.93, 25.54 au
Average spatial batch extension              ...   3.71,  3.48,  3.72 au

Overlap Fitting                  UseSFitting ... on
Constructing numerical overlap ... done (      2.7 sec)
Inverting numerical overlap    ... done (      0.1 sec)
Obtaining analytic overlap     ... done (      0.0 sec)
Final contraction and storage  ... done (      0.2 sec)

Time for X-Grid setup             =   19.992 sec
--------------
SCF ITERATIONS
--------------
ITER       Energy         Delta-E        Max-DP      RMS-DP      [F,P]     Damp
               ***  Starting incremental Fock matrix formation  ***
                      *** Initiating the SOSCF procedure ***
                      *** Re-Reading the Fockian *** 
                      *** Removing any level shift *** 
ITER      Energy       Delta-E        Grad      Rot      Max-DP    RMS-DP
  0  -6023.63725323 -6023.6372532296  0.000001  0.000001  0.000007  0.000000
               *** Restarting incremental Fock matrix formation ***
                  ***Gradient check signals convergence***
              ***Rediagonalizing the Fockian in SOSCF/NRSCF***

               *****************************************************
               *                     SUCCESS                       *
               *           SCF CONVERGED AFTER   1 CYCLES          *
               *****************************************************

Old exchange energy                            =   -221.020249521 Eh
New exchange energy                            =   -221.032514224 Eh
Exchange energy change after final integration =     -0.012264703 Eh
Total energy after final integration           =  -6023.649517933 Eh
Final COS-X integration done in                =   456.589 sec

----------------
TOTAL SCF ENERGY
----------------

Total Energy       :        -6023.64951793 Eh         -163911.83650 eV

Components:
Nuclear Repulsion  :         5901.07356191 Eh          160576.37516 eV
Electronic Energy  :       -11924.72307985 Eh         -324488.21166 eV

One Electron Energy:       -20270.90670940 Eh         -551599.41434 eV
Two Electron Energy:         8346.18362956 Eh          227111.20267 eV

Virial components:
Potential Energy   :       -11780.45775764 Eh         -320562.55267 eV
Kinetic Energy     :         5756.80823971 Eh          156650.71617 eV
Virial Ratio       :            2.04635230


DFT components:
N(Alpha)           :      173.000062922407 electrons
N(Beta)            :      173.000062922407 electrons
N(Total)           :      346.000125844814 electrons
E(X)               :     -196.141122045198 Eh       
E(C)               :       -9.610511163688 Eh       
E(XC)              :     -205.751633208885 Eh       

---------------
SCF CONVERGENCE
---------------

  Last Energy change         ...   -8.1036e-10  Tolerance :   1.0000e-08
  Last MAX-Density change    ...    2.2937e-13  Tolerance :   1.0000e-07
  Last RMS-Density change    ...    6.3190e-16  Tolerance :   5.0000e-09
  Last Orbital Gradient      ...    3.4800e-07  Tolerance :   1.0000e-05
  Last Orbital Rotation      ...    6.4611e-07  Tolerance :   1.0000e-05

             **** THE GBW FILE WAS UPDATED (Pb2Cl11_6NH3CH3_-1_mp2_sp2_3.orca.gbw) ****
             **** DENSITY FILE WAS UPDATED (Pb2Cl11_6NH3CH3_-1_mp2_sp2_3.orca.scfp.tmp) ****
             **** ENERGY FILE WAS UPDATED (Pb2Cl11_6NH3CH3_-1_mp2_sp2_3.orca.en.tmp) ****
----------------
ORBITAL ENERGIES
----------------

  NO   OCC          E(Eh)            E(eV) 
   0   2.0000    -102.755808     -2796.1277 
   1   2.0000    -102.740569     -2795.7130 
   2   2.0000    -102.739226     -2795.6765 
   3   2.0000    -102.737758     -2795.6365 
   4   2.0000    -102.733277     -2795.5146 
   5   2.0000    -102.729049     -2795.3995 
   6   2.0000    -102.728274     -2795.3784 
   7   2.0000    -102.728116     -2795.3742 
   8   2.0000    -102.720343     -2795.1626 
   9   2.0000    -102.719923     -2795.1512 
  10   2.0000    -102.714164     -2794.9945 
  11   2.0000     -14.848576      -404.0503 
  12   2.0000     -14.836233      -403.7144 
  13   2.0000     -14.835818      -403.7031 
  14   2.0000     -14.829273      -403.5250 
  15   2.0000     -14.828495      -403.5039 
  16   2.0000     -14.824708      -403.4008 
  17   2.0000     -10.617560      -288.9185 
  18   2.0000     -10.610017      -288.7132 
  19   2.0000     -10.607447      -288.6433 
  20   2.0000     -10.601344      -288.4772 
  21   2.0000     -10.580437      -287.9083 
  22   2.0000     -10.579053      -287.8707 
  23   2.0000      -9.763379      -265.6750 
  24   2.0000      -9.747806      -265.2513 
  25   2.0000      -9.746237      -265.2086 
  26   2.0000      -9.744376      -265.1580 
  27   2.0000      -9.740129      -265.0424 
  28   2.0000      -9.736009      -264.9303 
  29   2.0000      -9.735567      -264.9182 
  30   2.0000      -9.735222      -264.9089 
  31   2.0000      -9.727361      -264.6950 
  32   2.0000      -9.726997      -264.6851 
  33   2.0000      -9.721366      -264.5318 
  34   2.0000      -7.400156      -201.3685 
  35   2.0000      -7.398855      -201.3331 
  36   2.0000      -7.398823      -201.3322 
  37   2.0000      -7.384124      -200.9322 
  38   2.0000      -7.384035      -200.9298 
  39   2.0000      -7.383286      -200.9094 
  40   2.0000      -7.383070      -200.9036 
  41   2.0000      -7.381963      -200.8734 
  42   2.0000      -7.381503      -200.8609 
  43   2.0000      -7.381198      -200.8526 
  44   2.0000      -7.380151      -200.8241 
  45   2.0000      -7.379687      -200.8115 
  46   2.0000      -7.376612      -200.7278 
  47   2.0000      -7.376138      -200.7149 
  48   2.0000      -7.375603      -200.7004 
  49   2.0000      -7.372518      -200.6164 
  50   2.0000      -7.372000      -200.6023 
  51   2.0000      -7.371972      -200.6016 
  52   2.0000      -7.371687      -200.5938 
  53   2.0000      -7.371469      -200.5879 
  54   2.0000      -7.371447      -200.5873 
  55   2.0000      -7.371281      -200.5828 
  56   2.0000      -7.371096      -200.5777 
  57   2.0000      -7.370861      -200.5713 
  58   2.0000      -7.363631      -200.3746 
  59   2.0000      -7.363308      -200.3658 
  60   2.0000      -7.363194      -200.3627 
  61   2.0000      -7.363184      -200.3624 
  62   2.0000      -7.363125      -200.3608 
  63   2.0000      -7.362664      -200.3483 
  64   2.0000      -7.357679      -200.2126 
  65   2.0000      -7.357263      -200.2013 
  66   2.0000      -7.357188      -200.1993 
  67   2.0000      -5.709542      -155.3645 
  68   2.0000      -5.702024      -155.1600 
  69   2.0000      -3.480659       -94.7136 
  70   2.0000      -3.479395       -94.6792 
  71   2.0000      -3.479106       -94.6713 
  72   2.0000      -3.473032       -94.5060 
  73   2.0000      -3.472006       -94.4781 
  74   2.0000      -3.471672       -94.4690 
  75   2.0000      -1.029918       -28.0255 
  76   2.0000      -1.020211       -27.7614 
  77   2.0000      -1.018685       -27.7198 
  78   2.0000      -1.011470       -27.5235 
  79   2.0000      -1.008274       -27.4365 
  80   2.0000      -1.003924       -27.3182 
  81   2.0000      -0.871165       -23.7056 
  82   2.0000      -0.869196       -23.6520 
  83   2.0000      -0.868103       -23.6223 
  84   2.0000      -0.867327       -23.6012 
  85   2.0000      -0.866191       -23.5703 
  86   2.0000      -0.864832       -23.5333 
  87   2.0000      -0.862875       -23.4800 
  88   2.0000      -0.860881       -23.4258 
  89   2.0000      -0.860118       -23.4050 
  90   2.0000      -0.859091       -23.3771 
  91   2.0000      -0.778495       -21.1839 
  92   2.0000      -0.772922       -21.0323 
  93   2.0000      -0.767310       -20.8796 
  94   2.0000      -0.763109       -20.7653 
  95   2.0000      -0.756463       -20.5844 
  96   2.0000      -0.755739       -20.5647 
  97   2.0000      -0.752430       -20.4747 
  98   2.0000      -0.750930       -20.4338 
  99   2.0000      -0.748568       -20.3696 
 100   2.0000      -0.747303       -20.3351 
 101   2.0000      -0.745520       -20.2866 
 102   2.0000      -0.742065       -20.1926 
 103   2.0000      -0.739409       -20.1203 
 104   2.0000      -0.738661       -20.1000 
 105   2.0000      -0.734323       -19.9819 
 106   2.0000      -0.725804       -19.7501 
 107   2.0000      -0.721881       -19.6434 
 108   2.0000      -0.562877       -15.3167 
 109   2.0000      -0.555213       -15.1081 
 110   2.0000      -0.553759       -15.0686 
 111   2.0000      -0.552501       -15.0343 
 112   2.0000      -0.546860       -14.8808 
 113   2.0000      -0.545336       -14.8393 
 114   2.0000      -0.545072       -14.8322 
 115   2.0000      -0.544038       -14.8040 
 116   2.0000      -0.541924       -14.7465 
 117   2.0000      -0.539176       -14.6717 
 118   2.0000      -0.533096       -14.5063 
 119   2.0000      -0.528234       -14.3740 
 120   2.0000      -0.500867       -13.6293 
 121   2.0000      -0.492159       -13.3923 
 122   2.0000      -0.488754       -13.2997 
 123   2.0000      -0.481713       -13.1081 
 124   2.0000      -0.466714       -12.6999 
 125   2.0000      -0.461026       -12.5451 
 126   2.0000      -0.451817       -12.2946 
 127   2.0000      -0.436573       -11.8798 
 128   2.0000      -0.425788       -11.5863 
 129   2.0000      -0.423250       -11.5172 
 130   2.0000      -0.418420       -11.3858 
 131   2.0000      -0.415964       -11.3189 
 132   2.0000      -0.415469       -11.3055 
 133   2.0000      -0.413267       -11.2456 
 134   2.0000      -0.408870       -11.1259 
 135   2.0000      -0.407158       -11.0793 
 136   2.0000      -0.396627       -10.7928 
 137   2.0000      -0.394283       -10.7290 
 138   2.0000      -0.389888       -10.6094 
 139   2.0000      -0.388314       -10.5666 
 140   2.0000      -0.286572        -7.7980 
 141   2.0000      -0.272943        -7.4272 
 142   2.0000      -0.268225        -7.2988 
 143   2.0000      -0.263728        -7.1764 
 144   2.0000      -0.257586        -7.0093 
 145   2.0000      -0.255659        -6.9568 
 146   2.0000      -0.254116        -6.9149 
 147   2.0000      -0.249906        -6.8003 
 148   2.0000      -0.245187        -6.6719 
 149   2.0000      -0.242275        -6.5926 
 150   2.0000      -0.241463        -6.5705 
 151   2.0000      -0.238908        -6.5010 
 152   2.0000      -0.238554        -6.4914 
 153   2.0000      -0.237455        -6.4615 
 154   2.0000      -0.236297        -6.4300 
 155   2.0000      -0.232845        -6.3360 
 156   2.0000      -0.231786        -6.3072 
 157   2.0000      -0.230433        -6.2704 
 158   2.0000      -0.228946        -6.2299 
 159   2.0000      -0.228678        -6.2226 
 160   2.0000      -0.227153        -6.1812 
 161   2.0000      -0.225350        -6.1321 
 162   2.0000      -0.224871        -6.1190 
 163   2.0000      -0.224221        -6.1014 
 164   2.0000      -0.223010        -6.0684 
 165   2.0000      -0.222510        -6.0548 
 166   2.0000      -0.220177        -5.9913 
 167   2.0000      -0.219704        -5.9784 
 168   2.0000      -0.218575        -5.9477 
 169   2.0000      -0.218015        -5.9325 
 170   2.0000      -0.212086        -5.7711 
 171   2.0000      -0.194671        -5.2973 
 172   2.0000      -0.184431        -5.0186 
 173   0.0000       0.096717         2.6318 
 174   0.0000       0.110435         3.0051 
 175   0.0000       0.118115         3.2141 
 176   0.0000       0.120303         3.2736 
 177   0.0000       0.123784         3.3683 
 178   0.0000       0.128747         3.5034 
 179   0.0000       0.129995         3.5373 
 180   0.0000       0.135136         3.6772 
 181   0.0000       0.140110         3.8126 
 182   0.0000       0.143091         3.8937 
 183   0.0000       0.166982         4.5438 
 184   0.0000       0.168240         4.5780 
 185   0.0000       0.178492         4.8570 
 186   0.0000       0.185739         5.0542 
 187   0.0000       0.186935         5.0868 
 188   0.0000       0.188006         5.1159 
 189   0.0000       0.194658         5.2969 
 190   0.0000       0.195745         5.3265 
 191   0.0000       0.200346         5.4517 
 192   0.0000       0.201489         5.4828 
 193   0.0000       0.202376         5.5069 
 194   0.0000       0.207507         5.6465 
 195   0.0000       0.207605         5.6492 
 196   0.0000       0.211066         5.7434 
 197   0.0000       0.214003         5.8233 
 198   0.0000       0.222727         6.0607 
 199   0.0000       0.231507         6.2996 
 200   0.0000       0.232447         6.3252 
 201   0.0000       0.238198         6.4817 
 202   0.0000       0.241638         6.5753 
 203   0.0000       0.245262         6.6739 
 204   0.0000       0.251145         6.8340 
 205   0.0000       0.251776         6.8512 
 206   0.0000       0.254896         6.9361 
 207   0.0000       0.258250         7.0273 
 208   0.0000       0.259199         7.0532 
 209   0.0000       0.266321         7.2470 
 210   0.0000       0.269014         7.3202 
 211   0.0000       0.271237         7.3807 
 212   0.0000       0.272902         7.4260 
 213   0.0000       0.275204         7.4887 
 214   0.0000       0.281503         7.6601 
 215   0.0000       0.285407         7.7663 
 216   0.0000       0.286139         7.7862 
 217   0.0000       0.288333         7.8459 
 218   0.0000       0.293987         7.9998 
 219   0.0000       0.296361         8.0644 
 220   0.0000       0.298514         8.1230 
 221   0.0000       0.301799         8.2124 
 222   0.0000       0.308519         8.3952 
 223   0.0000       0.312712         8.5093 
 224   0.0000       0.317117         8.6292 
 225   0.0000       0.324997         8.8436 
 226   0.0000       0.327473         8.9110 
 227   0.0000       0.340004         9.2520 
 228   0.0000       0.342424         9.3178 
 229   0.0000       0.345848         9.4110 
 230   0.0000       0.349327         9.5057 
 231   0.0000       0.349787         9.5182 
 232   0.0000       0.351403         9.5622 
 233   0.0000       0.358662         9.7597 
 234   0.0000       0.360340         9.8054 
 235   0.0000       0.363851         9.9009 
 236   0.0000       0.366804         9.9812 
 237   0.0000       0.368277        10.0213 
 238   0.0000       0.369494        10.0544 
 239   0.0000       0.370277        10.0758 
 240   0.0000       0.372490        10.1360 
 241   0.0000       0.374447        10.1892 
 242   0.0000       0.377519        10.2728 
 243   0.0000       0.383429        10.4336 
 244   0.0000       0.386022        10.5042 
 245   0.0000       0.389264        10.5924 
 246   0.0000       0.393265        10.7013 
 247   0.0000       0.398547        10.8450 
 248   0.0000       0.400679        10.9030 
 249   0.0000       0.405039        11.0217 
 250   0.0000       0.407037        11.0760 
 251   0.0000       0.409636        11.1468 
 252   0.0000       0.417564        11.3625 
 253   0.0000       0.423328        11.5193 
 254   0.0000       0.426001        11.5921 
 255   0.0000       0.429131        11.6772 
 256   0.0000       0.434871        11.8334 
 257   0.0000       0.438638        11.9360 
 258   0.0000       0.439399        11.9566 
 259   0.0000       0.453013        12.3271 
 260   0.0000       0.462936        12.5971 
 261   0.0000       0.463893        12.6232 
 262   0.0000       0.467786        12.7291 
 263   0.0000       0.472587        12.8598 
 264   0.0000       0.473024        12.8716 
 265   0.0000       0.478202        13.0125 
 266   0.0000       0.482381        13.1262 
 267   0.0000       0.486673        13.2430 
 268   0.0000       0.493215        13.4211 
 269   0.0000       0.495037        13.4706 
 270   0.0000       0.496152        13.5010 
 271   0.0000       0.501187        13.6380 
 272   0.0000       0.505270        13.7491 
 273   0.0000       0.507831        13.8188 
 274   0.0000       0.512565        13.9476 
 275   0.0000       0.517290        14.0762 
 276   0.0000       0.519632        14.1399 
 277   0.0000       0.525951        14.3118 
 278   0.0000       0.530763        14.4428 
 279   0.0000       0.533709        14.5230 
 280   0.0000       0.535832        14.5807 
 281   0.0000       0.537395        14.6233 
 282   0.0000       0.541240        14.7279 
 283   0.0000       0.549229        14.9453 
 284   0.0000       0.551988        15.0204 
 285   0.0000       0.553198        15.0533 
 286   0.0000       0.557666        15.1749 
 287   0.0000       0.558498        15.1975 
 288   0.0000       0.561039        15.2667 
 289   0.0000       0.565176        15.3792 
 290   0.0000       0.565827        15.3969 
 291   0.0000       0.567111        15.4319 
 292   0.0000       0.568534        15.4706 
 293   0.0000       0.570555        15.5256 
 294   0.0000       0.574274        15.6268 
 295   0.0000       0.575002        15.6466 
 296   0.0000       0.576264        15.6809 
 297   0.0000       0.579246        15.7621 
 298   0.0000       0.580720        15.8022 
 299   0.0000       0.583270        15.8716 
 300   0.0000       0.584802        15.9133 
 301   0.0000       0.586683        15.9645 
 302   0.0000       0.589051        16.0289 
 303   0.0000       0.590699        16.0737 
 304   0.0000       0.593197        16.1417 
 305   0.0000       0.595094        16.1933 
 306   0.0000       0.598462        16.2850 
 307   0.0000       0.600758        16.3475 
 308   0.0000       0.603854        16.4317 
 309   0.0000       0.605181        16.4678 
 310   0.0000       0.605903        16.4874 
 311   0.0000       0.608557        16.5597 
 312   0.0000       0.610509        16.6128 
 313   0.0000       0.611851        16.6493 
 314   0.0000       0.614907        16.7325 
 315   0.0000       0.617203        16.7950 
 316   0.0000       0.621495        16.9117 
 317   0.0000       0.624376        16.9901 
 318   0.0000       0.626120        17.0376 
 319   0.0000       0.630705        17.1624 
 320   0.0000       0.632520        17.2117 
 321   0.0000       0.633527        17.2392 
 322   0.0000       0.637434        17.3455 
 323   0.0000       0.638080        17.3630 
 324   0.0000       0.641648        17.4601 
 325   0.0000       0.642397        17.4805 
 326   0.0000       0.646491        17.5919 
 327   0.0000       0.648563        17.6483 
 328   0.0000       0.650840        17.7103 
 329   0.0000       0.651553        17.7297 
 330   0.0000       0.656081        17.8529 
 331   0.0000       0.657344        17.8872 
 332   0.0000       0.659752        17.9528 
 333   0.0000       0.662176        18.0187 
 334   0.0000       0.665319        18.1042 
 335   0.0000       0.667061        18.1517 
 336   0.0000       0.667325        18.1588 
 337   0.0000       0.672218        18.2920 
 338   0.0000       0.673102        18.3160 
 339   0.0000       0.679375        18.4867 
 340   0.0000       0.681268        18.5383 
 341   0.0000       0.684508        18.6264 
 342   0.0000       0.687287        18.7020 
 343   0.0000       0.688679        18.7399 
 344   0.0000       0.690376        18.7861 
 345   0.0000       0.692165        18.8348 
 346   0.0000       0.693381        18.8678 
 347   0.0000       0.698535        19.0081 
 348   0.0000       0.700686        19.0666 
 349   0.0000       0.703639        19.1470 
 350   0.0000       0.706754        19.2318 
 351   0.0000       0.711966        19.3736 
 352   0.0000       0.714653        19.4467 
 353   0.0000       0.717349        19.5201 
 354   0.0000       0.723669        19.6920 
 355   0.0000       0.728566        19.8253 
 356   0.0000       0.731796        19.9132 
 357   0.0000       0.732684        19.9373 
 358   0.0000       0.734196        19.9785 
 359   0.0000       0.736895        20.0519 
 360   0.0000       0.741309        20.1720 
 361   0.0000       0.742142        20.1947 
 362   0.0000       0.749849        20.4044 
 363   0.0000       0.752957        20.4890 
 364   0.0000       0.756628        20.5889 
 365   0.0000       0.761564        20.7232 
 366   0.0000       0.767159        20.8755 
 367   0.0000       0.768886        20.9225 
 368   0.0000       0.774734        21.0816 
 369   0.0000       0.779164        21.2021 
 370   0.0000       0.780366        21.2348 
 371   0.0000       0.786659        21.4061 
 372   0.0000       0.789878        21.4937 
 373   0.0000       0.793194        21.5839 
 374   0.0000       0.797369        21.6975 
 375   0.0000       0.799438        21.7538 
 376   0.0000       0.802562        21.8388 
 377   0.0000       0.805012        21.9055 
 378   0.0000       0.806126        21.9358 
 379   0.0000       0.809885        22.0381 
 380   0.0000       0.811359        22.0782 
 381   0.0000       0.816752        22.2249 
 382   0.0000       0.819402        22.2971 
 383   0.0000       0.822273        22.3752 
 384   0.0000       0.823151        22.3991 
 385   0.0000       0.827383        22.5142 
 386   0.0000       0.830556        22.6006 
 387   0.0000       0.832323        22.6487 
 388   0.0000       0.835012        22.7218 
 389   0.0000       0.837045        22.7771 
 390   0.0000       0.839710        22.8497 
 391   0.0000       0.841999        22.9120 
 392   0.0000       0.842633        22.9292 
 393   0.0000       0.848558        23.0904 
 394   0.0000       0.854340        23.2478 
 395   0.0000       0.856470        23.3057 
 396   0.0000       0.863214        23.4892 
 397   0.0000       0.869888        23.6709 
 398   0.0000       0.873654        23.7733 
 399   0.0000       0.877844        23.8873 
 400   0.0000       0.885502        24.0957 
 401   0.0000       0.887076        24.1386 
 402   0.0000       0.888618        24.1805 
 403   0.0000       0.894041        24.3281 
 404   0.0000       0.897588        24.4246 
 405   0.0000       0.900692        24.5091 
 406   0.0000       0.903167        24.5764 
 407   0.0000       0.906061        24.6552 
 408   0.0000       0.910140        24.7662 
 409   0.0000       0.914522        24.8854 
 410   0.0000       0.922063        25.0906 
 411   0.0000       0.923234        25.1225 
 412   0.0000       0.925700        25.1896 
 413   0.0000       0.934339        25.4246 
 414   0.0000       0.936505        25.4836 
 415   0.0000       0.945037        25.7158 
 416   0.0000       0.946988        25.7689 
 417   0.0000       0.952795        25.9269 
 418   0.0000       0.958177        26.0733 
 419   0.0000       0.961151        26.1542 
 420   0.0000       0.965456        26.2714 
 421   0.0000       0.970229        26.4013 
 422   0.0000       0.975638        26.5485 
 423   0.0000       0.981359        26.7041 
 424   0.0000       0.985430        26.8149 
 425   0.0000       0.986126        26.8339 
 426   0.0000       0.995281        27.0830 
 427   0.0000       0.999049        27.1855 
 428   0.0000       1.002008        27.2660 
 429   0.0000       1.004221        27.3262 
 430   0.0000       1.008459        27.4416 
 431   0.0000       1.012323        27.5467 
 432   0.0000       1.018295        27.7092 
 433   0.0000       1.020380        27.7659 
 434   0.0000       1.025474        27.9046 
 435   0.0000       1.028488        27.9866 
 436   0.0000       1.031911        28.0797 
 437   0.0000       1.035758        28.1844 
 438   0.0000       1.038952        28.2713 
 439   0.0000       1.044265        28.4159 
 440   0.0000       1.048929        28.5428 
 441   0.0000       1.052669        28.6446 
 442   0.0000       1.056747        28.7556 
 443   0.0000       1.062669        28.9167 
 444   0.0000       1.063585        28.9416 
 445   0.0000       1.072047        29.1719 
 446   0.0000       1.079137        29.3648 
 447   0.0000       1.087806        29.6007 
 448   0.0000       1.091220        29.6936 
 449   0.0000       1.096673        29.8420 
 450   0.0000       1.117952        30.4210 
 451   0.0000       1.130141        30.7527 
 452   0.0000       1.146104        31.1871 
 453   0.0000       1.157267        31.4908 
 454   0.0000       1.158615        31.5275 
 455   0.0000       1.165628        31.7184 
 456   0.0000       1.169559        31.8253 
 457   0.0000       1.177222        32.0338 
 458   0.0000       1.185941        32.2711 
 459   0.0000       1.198065        32.6010 
 460   0.0000       1.203535        32.7498 
 461   0.0000       1.205605        32.8062 
 462   0.0000       1.213140        33.0112 
 463   0.0000       1.215870        33.0855 
 464   0.0000       1.250901        34.0387 
 465   0.0000       1.255288        34.1581 
 466   0.0000       1.281452        34.8701 
 467   0.0000       1.285404        34.9776 
 468   0.0000       1.290504        35.1164 
 469   0.0000       1.295529        35.2531 
 470   0.0000       1.299390        35.3582 
 471   0.0000       1.305999        35.5380 
 472   0.0000       1.310792        35.6685 
 473   0.0000       1.311537        35.6887 
 474   0.0000       1.316419        35.8216 
 475   0.0000       1.318961        35.8908 
 476   0.0000       1.327595        36.1257 
 477   0.0000       1.333824        36.2952 
 478   0.0000       1.337672        36.3999 
 479   0.0000       1.342132        36.5213 
 480   0.0000       1.349321        36.7169 
 481   0.0000       1.352985        36.8166 
 482   0.0000       1.358545        36.9679 
 483   0.0000       1.367855        37.2212 
 484   0.0000       1.374064        37.3902 
 485   0.0000       1.376584        37.4587 
 486   0.0000       1.390897        37.8482 
 487   0.0000       1.402865        38.1739 
 488   0.0000       1.414994        38.5039 
 489   0.0000       1.430424        38.9238 
 490   0.0000       1.448308        39.4105 
 491   0.0000       1.453911        39.5629 
 492   0.0000       1.461328        39.7648 
 493   0.0000       1.474508        40.1234 
 494   0.0000       1.491888        40.5963 
 495   0.0000       1.507846        41.0306 
 496   0.0000       1.518992        41.3339 
 497   0.0000       1.524682        41.4887 
 498   0.0000       1.533910        41.7398 
 499   0.0000       1.536321        41.8054 
 500   0.0000       1.550806        42.1996 
 501   0.0000       1.558603        42.4117 
 502   0.0000       1.560612        42.4664 
 503   0.0000       1.570319        42.7305 
 504   0.0000       1.595958        43.4282 
 505   0.0000       1.601423        43.5769 
 506   0.0000       1.605318        43.6829 
 507   0.0000       1.607728        43.7485 
 508   0.0000       1.612588        43.8808 
 509   0.0000       1.624565        44.2067 
 510   0.0000       1.645320        44.7714 
 511   0.0000       1.647741        44.8373 
 512   0.0000       1.654845        45.0306 
 513   0.0000       1.661922        45.2232 
 514   0.0000       1.664316        45.2883 
 515   0.0000       1.670340        45.4523 
 516   0.0000       1.685661        45.8692 
 517   0.0000       1.689625        45.9770 
 518   0.0000       1.690493        46.0007 
 519   0.0000       1.690716        46.0067 
 520   0.0000       1.692062        46.0433 
 521   0.0000       1.694669        46.1143 
 522   0.0000       1.701300        46.2947 
 523   0.0000       1.706888        46.4468 
 524   0.0000       1.708067        46.4789 
 525   0.0000       1.709892        46.5285 
 526   0.0000       1.712735        46.6059 
 527   0.0000       1.716760        46.7154 
 528   0.0000       1.720158        46.8079 
 529   0.0000       1.724316        46.9210 
 530   0.0000       1.725014        46.9400 
 531   0.0000       1.727870        47.0177 
 532   0.0000       1.729291        47.0564 
 533   0.0000       1.735653        47.2295 
 534   0.0000       1.736985        47.2658 
 535   0.0000       1.737750        47.2866 
 536   0.0000       1.746394        47.5218 
 537   0.0000       1.751080        47.6493 
 538   0.0000       1.753121        47.7048 
 539   0.0000       1.757649        47.8281 
 540   0.0000       1.787052        48.6281 
 541   0.0000       1.798038        48.9271 
 542   0.0000       1.852512        50.4094 
 543   0.0000       1.861069        50.6423 
 544   0.0000       1.866324        50.7852 
 545   0.0000       1.872038        50.9407 
 546   0.0000       1.873063        50.9686 
 547   0.0000       1.878321        51.1117 
 548   0.0000       1.886074        51.3227 
 549   0.0000       1.889894        51.4266 
 550   0.0000       1.890640        51.4469 
 551   0.0000       1.897749        51.6404 
 552   0.0000       1.906995        51.8920 
 553   0.0000       1.913670        52.0736 
 554   0.0000       1.925725        52.4017 
 555   0.0000       1.932864        52.5959 
 556   0.0000       1.937583        52.7243 
 557   0.0000       1.943097        52.8744 
 558   0.0000       1.944691        52.9177 
 559   0.0000       1.958996        53.3070 
 560   0.0000       1.987801        54.0908 
 561   0.0000       1.991644        54.1954 
 562   0.0000       1.994013        54.2599 
 563   0.0000       1.998313        54.3768 
 564   0.0000       2.000231        54.4291 
 565   0.0000       2.002972        54.5036 
 566   0.0000       2.003143        54.5083 
 567   0.0000       2.006244        54.5927 
 568   0.0000       2.012010        54.7496 
 569   0.0000       2.018972        54.9390 
 570   0.0000       2.021362        55.0041 
 571   0.0000       2.025217        55.1089 
 572   0.0000       2.026502        55.1439 
 573   0.0000       2.030224        55.2452 
 574   0.0000       2.032053        55.2950 
 575   0.0000       2.034180        55.3529 
 576   0.0000       2.036764        55.4232 
 577   0.0000       2.038881        55.4808 
 578   0.0000       2.041271        55.5458 
 579   0.0000       2.043124        55.5962 
 580   0.0000       2.046594        55.6907 
 581   0.0000       2.051084        55.8128 
 582   0.0000       2.055361        55.9292 
 583   0.0000       2.060493        56.0689 
 584   0.0000       2.065785        56.2129 
 585   0.0000       2.067385        56.2564 
 586   0.0000       2.071150        56.3589 
 587   0.0000       2.071698        56.3738 
 588   0.0000       2.074241        56.4430 
 589   0.0000       2.076575        56.5065 
 590   0.0000       2.080010        56.5999 
 591   0.0000       2.080947        56.6255 
 592   0.0000       2.082915        56.6790 
 593   0.0000       2.086302        56.7712 
 594   0.0000       2.088106        56.8203 
 595   0.0000       2.088928        56.8426 
 596   0.0000       2.094111        56.9837 
 597   0.0000       2.095034        57.0088 
 598   0.0000       2.096649        57.0527 
 599   0.0000       2.099720        57.1363 
 600   0.0000       2.102283        57.2060 
 601   0.0000       2.104712        57.2721 
 602   0.0000       2.109724        57.4085 
 603   0.0000       2.111118        57.4464 
 604   0.0000       2.116780        57.6005 
 605   0.0000       2.124609        57.8135 
 606   0.0000       2.127460        57.8911 
 607   0.0000       2.129959        57.9591 
 608   0.0000       2.136249        58.1303 
 609   0.0000       2.139794        58.2267 
 610   0.0000       2.146304        58.4039 
 611   0.0000       2.148682        58.4686 
 612   0.0000       2.150593        58.5206 
 613   0.0000       2.155973        58.6670 
 614   0.0000       2.160888        58.8007 
 615   0.0000       2.161625        58.8208 
 616   0.0000       2.164593        58.9016 
 617   0.0000       2.166668        58.9580 
 618   0.0000       2.173626        59.1474 
 619   0.0000       2.175061        59.1864 
 620   0.0000       2.176366        59.2219 
 621   0.0000       2.182188        59.3804 
 622   0.0000       2.182460        59.3878 
 623   0.0000       2.183911        59.4272 
 624   0.0000       2.188420        59.5499 
 625   0.0000       2.191053        59.6216 
 626   0.0000       2.194712        59.7212 
 627   0.0000       2.200285        59.8728 
 628   0.0000       2.203863        59.9701 
 629   0.0000       2.205313        60.0096 
 630   0.0000       2.208630        60.0999 
 631   0.0000       2.213724        60.2385 
 632   0.0000       2.216698        60.3194 
 633   0.0000       2.219577        60.3978 
 634   0.0000       2.226547        60.5874 
 635   0.0000       2.229092        60.6567 
 636   0.0000       2.235773        60.8385 
 637   0.0000       2.237943        60.8975 
 638   0.0000       2.241900        61.0052 
 639   0.0000       2.252977        61.3066 
 640   0.0000       2.256506        61.4027 
 641   0.0000       2.258331        61.4523 
 642   0.0000       2.260666        61.5159 
 643   0.0000       2.266049        61.6623 
 644   0.0000       2.268563        61.7307 
 645   0.0000       2.272975        61.8508 
 646   0.0000       2.274478        61.8917 
 647   0.0000       2.279066        62.0165 
 648   0.0000       2.281185        62.0742 
 649   0.0000       2.285661        62.1960 
 650   0.0000       2.286199        62.2106 
 651   0.0000       2.289984        62.3136 
 652   0.0000       2.292581        62.3843 
 653   0.0000       2.293982        62.4224 
 654   0.0000       2.298692        62.5506 
 655   0.0000       2.301940        62.6390 
 656   0.0000       2.307737        62.7967 
 657   0.0000       2.310829        62.8808 
 658   0.0000       2.313496        62.9534 
 659   0.0000       2.314729        62.9870 
 660   0.0000       2.317847        63.0718 
 661   0.0000       2.319718        63.1227 
 662   0.0000       2.324163        63.2437 
 663   0.0000       2.325318        63.2751 
 664   0.0000       2.326361        63.3035 
 665   0.0000       2.332776        63.4781 
 666   0.0000       2.335343        63.5479 
 667   0.0000       2.337635        63.6103 
 668   0.0000       2.338030        63.6210 
 669   0.0000       2.343110        63.7593 
 670   0.0000       2.345278        63.8183 
 671   0.0000       2.350075        63.9488 
 672   0.0000       2.352135        64.0048 
 673   0.0000       2.353423        64.0399 
 674   0.0000       2.355529        64.0972 
 675   0.0000       2.358345        64.1738 
 676   0.0000       2.359913        64.2165 
 677   0.0000       2.361766        64.2669 
 678   0.0000       2.362542        64.2880 
 679   0.0000       2.364040        64.3288 
 680   0.0000       2.365103        64.3577 
 681   0.0000       2.366945        64.4079 
 682   0.0000       2.367582        64.4252 
 683   0.0000       2.368845        64.4595 
 684   0.0000       2.369531        64.4782 
 685   0.0000       2.370421        64.5024 
 686   0.0000       2.371686        64.5369 
 687   0.0000       2.373366        64.5826 
 688   0.0000       2.375372        64.6372 
 689   0.0000       2.377344        64.6908 
 690   0.0000       2.378777        64.7298 
 691   0.0000       2.379023        64.7365 
 692   0.0000       2.381578        64.8060 
 693   0.0000       2.382319        64.8262 
 694   0.0000       2.382885        64.8416 
 695   0.0000       2.384441        64.8839 
 696   0.0000       2.386196        64.9317 
 697   0.0000       2.388850        65.0039 
 698   0.0000       2.390957        65.0613 
 699   0.0000       2.392127        65.0931 
 700   0.0000       2.392337        65.0988 
 701   0.0000       2.393866        65.1404 
 702   0.0000       2.395741        65.1914 
 703   0.0000       2.397108        65.2286 
 704   0.0000       2.397963        65.2519 
 705   0.0000       2.400635        65.3246 
 706   0.0000       2.404293        65.4241 
 707   0.0000       2.406195        65.4759 
 708   0.0000       2.408923        65.5501 
 709   0.0000       2.414498        65.7018 
 710   0.0000       2.419172        65.8290 
 711   0.0000       2.423656        65.9510 
 712   0.0000       2.427470        66.0548 
 713   0.0000       2.431740        66.1710 
 714   0.0000       2.432039        66.1791 
 715   0.0000       2.432743        66.1983 
 716   0.0000       2.437225        66.3203 
 717   0.0000       2.440011        66.3961 
 718   0.0000       2.443749        66.4978 
 719   0.0000       2.446943        66.5847 
 720   0.0000       2.447453        66.5986 
 721   0.0000       2.448098        66.6161 
 722   0.0000       2.454175        66.7815 
 723   0.0000       2.456640        66.8486 
 724   0.0000       2.458426        66.8972 
 725   0.0000       2.460537        66.9546 
 726   0.0000       2.463000        67.0216 
 727   0.0000       2.467148        67.1345 
 728   0.0000       2.471378        67.2496 
 729   0.0000       2.474517        67.3350 
 730   0.0000       2.477733        67.4225 
 731   0.0000       2.482443        67.5507 
 732   0.0000       2.484736        67.6131 
 733   0.0000       2.488661        67.7199 
 734   0.0000       2.491714        67.8030 
 735   0.0000       2.493504        67.8517 
 736   0.0000       2.496391        67.9302 
 737   0.0000       2.496998        67.9468 
 738   0.0000       2.501346        68.0651 
 739   0.0000       2.504146        68.1413 
 740   0.0000       2.505863        68.1880 
 741   0.0000       2.507509        68.2328 
 742   0.0000       2.509734        68.2933 
 743   0.0000       2.513112        68.3852 
 744   0.0000       2.514866        68.4330 
 745   0.0000       2.516349        68.4733 
 746   0.0000       2.519190        68.5506 
 747   0.0000       2.525214        68.7146 
 748   0.0000       2.528495        68.8038 
 749   0.0000       2.530638        68.8622 
 750   0.0000       2.534416        68.9650 
 751   0.0000       2.539380        69.1001 
[...]
      f+3     :     0.003325
      f-3     :     0.002316
 48 H s       :     0.822340  s :     0.822340
      pz      :     0.012282  p :     0.060965
      px      :     0.021539
      py      :     0.027144
 49 N s       :     3.008867  s :     3.008867
      pz      :     1.241059  p :     3.765584
      px      :     1.264381
      py      :     1.260145
      dz2     :     0.031222  d :     0.154037
      dxz     :     0.041303
      dyz     :     0.034584
      dx2y2   :     0.008637
      dxy     :     0.038291
      f0      :     0.002211  f :     0.009608
      f+1     :     0.001246
      f-1     :     0.001236
      f+2     :     0.001519
      f-2     :     0.001520
      f+3     :     0.001144
      f-3     :     0.000732
 50 H s       :     0.720359  s :     0.720359
      pz      :     0.018951  p :     0.136544
      px      :     0.046470
      py      :     0.071122
 51 H s       :     0.821448  s :     0.821448
      pz      :     0.021541  p :     0.061092
      px      :     0.024257
      py      :     0.015293
 52 H s       :     0.723512  s :     0.723512
      pz      :     0.037509  p :     0.128320
      px      :     0.044952
      py      :     0.045859
 53 H s       :     0.821111  s :     0.821111
      pz      :     0.023365  p :     0.061081
      px      :     0.014275
      py      :     0.023441
 54 H s       :     0.723218  s :     0.723218
      pz      :     0.041226  p :     0.129511
      px      :     0.043939
      py      :     0.044346
 55 C s       :     2.850886  s :     2.850886
      pz      :     1.046339  p :     3.092234
      px      :     0.984955
      py      :     1.060939
      dz2     :     0.030241  d :     0.317609
      dxz     :     0.083718
      dyz     :     0.078897
      dx2y2   :     0.043829
      dxy     :     0.080924
      f0      :     0.004784  f :     0.038262
      f+1     :     0.007330
      f-1     :     0.003115
      f+2     :     0.004473
      f-2     :     0.006447
      f+3     :     0.007143
      f-3     :     0.004970
 56 H s       :     0.821395  s :     0.821395
      pz      :     0.022215  p :     0.061125
      px      :     0.020770
      py      :     0.018140
 57 N s       :     3.008917  s :     3.008917
      pz      :     1.261800  p :     3.766011
      px      :     1.247176
      py      :     1.257035
      dz2     :     0.014527  d :     0.154177
      dxz     :     0.038470
      dyz     :     0.040508
      dx2y2   :     0.021671
      dxy     :     0.039001
      f0      :     0.001287  f :     0.009593
      f+1     :     0.001657
      f-1     :     0.000905
      f+2     :     0.001067
      f-2     :     0.001731
      f+3     :     0.001855
      f-3     :     0.001091
 58 H s       :     0.718892  s :     0.718892
      pz      :     0.042816  p :     0.140124
      px      :     0.051166
      py      :     0.046142
 59 H s       :     0.820022  s :     0.820022
      pz      :     0.018431  p :     0.061121
      px      :     0.017944
      py      :     0.024746
 60 H s       :     0.720049  s :     0.720049
      pz      :     0.051658  p :     0.133687
      px      :     0.022309
      py      :     0.059719


                      *****************************
                      * MAYER POPULATION ANALYSIS *
                      *****************************

  NA   - Mulliken gross atomic population
  ZA   - Total nuclear charge
  QA   - Mulliken gross atomic charge
  VA   - Mayer's total valence
  BVA  - Mayer's bonded valence
  FA   - Mayer's free valence

  ATOM       NA         ZA         QA         VA         BVA        FA
  0 C      6.2516     6.0000    -0.2516     3.8953     3.8953    -0.0000
  1 N      7.2930     7.0000    -0.2930     3.2194     3.2194    -0.0000
  2 H      0.8647     1.0000     0.1353     0.9653     0.9653    -0.0000
  3 H      0.8593     1.0000     0.1407     0.9647     0.9647     0.0000
  4 H      0.8609     1.0000     0.1391     0.9635     0.9635    -0.0000
  5 H      0.7255     1.0000     0.2745     1.0079     1.0079    -0.0000
  6 H      0.7318     1.0000     0.2682     1.0022     1.0022    -0.0000
  7 H      0.7171     1.0000     0.2829     0.9939     0.9939     0.0000
  8 Pb    21.0049    22.0000     0.9951     1.7265     1.7265    -0.0000
  9 Cl    17.6026    17.0000    -0.6026     0.7047     0.7047    -0.0000
 10 Cl    17.7185    17.0000    -0.7185     0.5066     0.5066    -0.0000
 11 Cl    17.6523    17.0000    -0.6523     0.6230     0.6230     0.0000
 12 Cl    17.7063    17.0000    -0.7063     0.5355     0.5355    -0.0000
 13 Cl    17.6757    17.0000    -0.6757     0.5914     0.5914     0.0000
 14 Cl    17.5981    17.0000    -0.5981     0.7035     0.7035     0.0000
 15 N      7.2745     7.0000    -0.2745     3.3646     3.3646    -0.0000
 16 C      6.2399     6.0000    -0.2399     3.8510     3.8510    -0.0000
 17 H      0.7232     1.0000     0.2768     1.0056     1.0056     0.0000
 18 H      0.7010     1.0000     0.2990     0.9636     0.9636    -0.0000
 19 H      0.8540     1.0000     0.1460     0.9796     0.9796    -0.0000
 20 H      0.8649     1.0000     0.1351     1.0007     1.0007     0.0000
 21 H      0.8781     1.0000     0.1219     0.9731     0.9731     0.0000
 22 H      0.7076     1.0000     0.2924     0.9446     0.9446    -0.0000
 23 Cl    17.6645    17.0000    -0.6645     0.6091     0.6091    -0.0000
 24 Cl    17.7002    17.0000    -0.7002     0.5470     0.5470     0.0000
 25 Pb    21.0048    22.0000     0.9952     1.7297     1.7297    -0.0000
 26 N      7.2772     7.0000    -0.2772     3.3678     3.3678    -0.0000
 27 C      6.2360     6.0000    -0.2360     3.8380     3.8380    -0.0000
 28 H      0.7045     1.0000     0.2955     0.9680     0.9680    -0.0000
 29 H      0.7042     1.0000     0.2958     0.9428     0.9428     0.0000
 30 H      0.8810     1.0000     0.1190     0.9693     0.9693     0.0000
 31 H      0.8499     1.0000     0.1501     0.9811     0.9811     0.0000
 32 H      0.8613     1.0000     0.1387     1.0041     1.0041    -0.0000
 33 H      0.7261     1.0000     0.2739     1.0020     1.0020     0.0000
 34 Cl    17.6090    17.0000    -0.6090     0.6967     0.6967    -0.0000
 35 H      0.8610     1.0000     0.1390     0.9649     0.9649    -0.0000
 36 H      0.7333     1.0000     0.2667     1.0076     1.0076     0.0000
 37 H      0.8584     1.0000     0.1416     0.9631     0.9631     0.0000
 38 C      6.2507     6.0000    -0.2507     3.8862     3.8862    -0.0000
 39 N      7.2901     7.0000    -0.2901     3.2327     3.2327     0.0000
 40 Cl    17.6530    17.0000    -0.6530     0.6230     0.6230    -0.0000
 41 H      0.7252     1.0000     0.2748     1.0087     1.0087    -0.0000
 42 H      0.7182     1.0000     0.2818     0.9888     0.9888    -0.0000
 43 H      0.8573     1.0000     0.1427     0.9640     0.9640    -0.0000
 44 Cl    17.7051    17.0000    -0.7051     0.5305     0.5305     0.0000
 45 H      0.8648     1.0000     0.1352     0.9713     0.9713    -0.0000
 46 H      0.7287     1.0000     0.2713     1.0155     1.0155     0.0000
 47 C      6.2442     6.0000    -0.2442     3.8961     3.8961     0.0000
 48 H      0.8649     1.0000     0.1351     0.9645     0.9645    -0.0000
 49 N      7.2818     7.0000    -0.2818     3.2048     3.2048     0.0000
 50 H      0.7396     1.0000     0.2604     1.0282     1.0282    -0.0000
 51 H      0.8632     1.0000     0.1368     0.9649     0.9649    -0.0000
 52 H      0.7262     1.0000     0.2738     0.9907     0.9907     0.0000
 53 H      0.8622     1.0000     0.1378     0.9648     0.9648     0.0000
 54 H      0.7224     1.0000     0.2776     0.9846     0.9846     0.0000
 55 C      6.2464     6.0000    -0.2464     3.8910     3.8910    -0.0000
 56 H      0.8620     1.0000     0.1380     0.9641     0.9641    -0.0000
 57 N      7.2870     7.0000    -0.2870     3.2040     3.2040    -0.0000
 58 H      0.7289     1.0000     0.2711     1.0205     1.0205    -0.0000
 59 H      0.8628     1.0000     0.1372     0.9702     0.9702     0.0000
 60 H      0.7384     1.0000     0.2616     1.0222     1.0222    -0.0000

  Mayer bond orders larger than 0.1
B(  0-C ,  1-N ) :   0.9355 B(  0-C ,  2-H ) :   0.9752 B(  0-C ,  3-H ) :   0.9751 
B(  0-C ,  4-H ) :   0.9747 B(  1-N ,  5-H ) :   0.7810 B(  1-N ,  6-H ) :   0.8110 
B(  1-N ,  7-H ) :   0.7963 B(  5-H , 11-Cl) :   0.2294 B(  6-H ,  9-Cl) :   0.1891 
B(  7-H , 10-Cl) :   0.1913 B(  8-Pb,  9-Cl) :   0.4879 B(  8-Pb, 10-Cl) :   0.1729 
B(  8-Pb, 11-Cl) :   0.3606 B(  8-Pb, 12-Cl) :   0.1313 B(  8-Pb, 13-Cl) :   0.2400 
B(  8-Pb, 14-Cl) :   0.3258 B( 10-Cl, 52-H ) :   0.1651 B( 12-Cl, 17-H ) :   0.2089 
B( 12-Cl, 46-H ) :   0.2329 B( 13-Cl, 18-H ) :   0.1361 B( 13-Cl, 50-H ) :   0.2399 
B( 14-Cl, 25-Pb) :   0.2614 B( 15-N , 16-C ) :   0.9320 B( 15-N , 17-H ) :   0.7939 
B( 15-N , 18-H ) :   0.8226 B( 15-N , 22-H ) :   0.8714 B( 16-C , 19-H ) :   0.9703 
B( 16-C , 20-H ) :   0.9671 B( 16-C , 21-H ) :   0.9709 B( 23-Cl, 25-Pb) :   0.2660 
B( 23-Cl, 28-H ) :   0.1419 B( 23-Cl, 60-H ) :   0.2262 B( 24-Cl, 25-Pb) :   0.1471 
B( 24-Cl, 33-H ) :   0.1919 B( 24-Cl, 58-H ) :   0.2486 B( 25-Pb, 34-Cl) :   0.4774 
B( 25-Pb, 40-Cl) :   0.3488 B( 25-Pb, 44-Cl) :   0.2184 B( 26-N , 27-C ) :   0.9267 
B( 26-N , 28-H ) :   0.8209 B( 26-N , 29-H ) :   0.8647 B( 26-N , 33-H ) :   0.8087 
B( 27-C , 30-H ) :   0.9706 B( 27-C , 31-H ) :   0.9695 B( 27-C , 32-H ) :   0.9658 
B( 34-Cl, 36-H ) :   0.1935 B( 35-H , 38-C ) :   0.9746 B( 36-H , 39-N ) :   0.8117 
B( 37-H , 38-C ) :   0.9739 B( 38-C , 39-N ) :   0.9314 B( 38-C , 43-H ) :   0.9744 
B( 39-N , 41-H ) :   0.7825 B( 39-N , 42-H ) :   0.8096 B( 40-Cl, 41-H ) :   0.2281 
B( 42-H , 44-Cl) :   0.1730 B( 44-Cl, 54-H ) :   0.1589 B( 45-H , 47-C ) :   0.9749 
B( 46-H , 49-N ) :   0.7799 B( 47-C , 48-H ) :   0.9758 B( 47-C , 49-N ) :   0.9401 
B( 47-C , 51-H ) :   0.9749 B( 49-N , 50-H ) :   0.7865 B( 49-N , 52-H ) :   0.8194 
B( 53-H , 55-C ) :   0.9756 B( 54-H , 57-N ) :   0.8211 B( 55-C , 56-H ) :   0.9747 
B( 55-C , 57-N ) :   0.9362 B( 55-C , 59-H ) :   0.9748 B( 57-N , 58-H ) :   0.7711 
B( 57-N , 60-H ) :   0.7936 

-------
TIMINGS
-------

Total SCF time: 0 days 0 hours 19 min 12 sec 

Total time                  ....    1152.391 sec
Sum of individual times     ....     670.187 sec  ( 58.2%)

Fock matrix formation       ....     590.050 sec  ( 51.2%)
  Coulomb formation         ....     537.430 sec  ( 91.1% of F)
  Split-RI-J                ....      41.000 sec  (  6.9% of F)
  Chain of spheres X        ....     952.959 sec  (161.5% of F)
  COS-X 1 center corr.      ....       0.000 sec  (  0.0% of F)
  XC integration            ....      52.548 sec  (  8.9% of F)
    Basis function eval.    ....      21.361 sec  ( 40.7% of XC)
    Density eval.           ....      15.816 sec  ( 30.1% of XC)
    XC-Functional eval.     ....       1.553 sec  (  3.0% of XC)
    XC-Potential eval.      ....      12.908 sec  ( 24.6% of XC)
Diagonalization             ....       1.161 sec  (  0.1%)
Density matrix formation    ....       0.367 sec  (  0.0%)
Population analysis         ....      10.286 sec  (  0.9%)
Initial guess               ....       1.032 sec  (  0.1%)
Orbital Transformation      ....       0.000 sec  (  0.0%)
Orbital Orthonormalization  ....       0.914 sec  (  0.1%)
DIIS solution               ....       0.345 sec  (  0.0%)
SOSCF solution              ....       0.731 sec  (  0.1%)
Grid generation             ....      66.214 sec  (  5.7%)

------------------------------------------------------------------------------
                              ORCA MP2 CALCULATION
------------------------------------------------------------------------------


-------------
RI-MP2 ENERGY
-------------
Dimension of the basis                    ... 1095
Memory devoted to MP2                     ... 4000 MB   
Data format for buffers                   ... DOUBLE
Compression type for matrix containers    ... UNCOMPRESSED
Overall scaling of the MP2 energy         ...   2.700e-01 Eh
Calculating two index integrals           ... done (    0.085 sec)
Cholesky decomposition of V**-1           ... done (    0.819 sec)

-----------------
RI-TRANSFORMATION (AUX index driven)
-----------------

Dimension of the orbital-basis         ... 1095
Dimension of the aux-basis             ... 1897
Transformation of internal/external MOs...    0- 172 to  173-1094
Number Format for Storage              ... Double (8 Byte)
Integral mode                          ... Direct

First Phase: integral generation and transformation of MO indices
  Aux angular momentum 0               ... done (   33.403 sec)
  Aux angular momentum 1               ... done (   35.559 sec)
  Aux angular momentum 2               ... done (   43.474 sec)
  Aux angular momentum 3               ... done (   18.128 sec)
  Aux angular momentum 4               ... done (   18.260 sec)
Closing buffer VIA ( 2.25 GB; CompressionRatio= 1.00)
  Phase 1 completed in   148.979 sec
Second Phase: sorting and transformation of aux index

IA-Transformation
Memory available                       ... 3892 MB 
Max. # MO pairs treated in a batch     ... 173    
# of internal orbitals                 ... 173
# batches for internal orbitals        ... 1
Closing buffer IAV ( 2.25 GB; CompressionRatio= 1.00)
(ia|v) transformation done in    68.956 sec

  Phase 2 completed in    72.541 sec
RI-Integral transformation completed in   221.522 sec
Opening buffers                              ... done

Starting loop over batches of integrals:

Operator 0  - window                       ... (  0-172)x(173-1094)
Operator 0  - Memory available             ...  4000 MB
Operator 0  - Memory needed per MO         ...  13.3 MB
Operator 0  - Number of orbitals per batch ... 173
Operator 0  - Number of batches            ... 1

OPERATOR  0   PASS   0:  MOs     0 ...  172
  Reading integrals       ... ok
  Internal MO   2
  Internal MO   5
  Internal MO   8
  Internal MO  11
  Internal MO  14
  Internal MO  17
  Internal MO  20
  Internal MO  23
  Internal MO  26
  Internal MO  29
  Internal MO  32
  Internal MO  35
  Internal MO  38
  Internal MO  41
  Internal MO  44
  Internal MO  47
  Internal MO  50
  Internal MO  53
  Internal MO  56
  Internal MO  59
  Internal MO  62
  Internal MO  65
  Internal MO  68
  Internal MO  71
  Internal MO  74
  Internal MO  77
  Internal MO  80
  Internal MO  83
  Internal MO  86
  Internal MO  89
  Internal MO  92
  Internal MO  95
  Internal MO  98
  Internal MO 101
  Internal MO 104
  Internal MO 107
  Internal MO 110
  Internal MO 113
  Internal MO 116
  Internal MO 119
  Internal MO 122
  Internal MO 125
  Internal MO 128
  Internal MO 131
  Internal MO 134
  Internal MO 137
  Internal MO 140
  Internal MO 143
  Internal MO 146
  Internal MO 149
  Internal MO 152
  Internal MO 155
  Internal MO 158
  Internal MO 161
  Internal MO 164
  Internal MO 167
  Internal MO 170
Time spent in pair loops =  2857.242 sec

-----------------------------------------------
 RI-MP2 CORRELATION ENERGY:     -2.218969117 Eh
-----------------------------------------------


-------
TIMINGS
-------

Total time                : 3079.705 sec
Integral trafo            :  221.534 sec (  7.2%)
I/O of integrals          :    1.777 sec (  0.1%)
K(i,j) Operators          : 2644.054 sec ( 85.9%)
T(i,j) pair energies      :  175.525 sec (  5.7%)
V-calculation             :    0.085 sec (  0.0%)
V**(-1/2)                 :    0.819 sec (  0.0%)
Gamma(ia|P)               :    0.000 sec (  0.0%)
Gamma-Trafo               :    0.000 sec (  0.0%)
D(virtual)                :    0.000 sec (  0.0%)
D(internal)               :    0.000 sec (  0.0%)
W(virtual)                :    0.000 sec (  0.0%)
W(internal)               :    0.000 sec (  0.0%)
L(virtual)                :    0.000 sec (  0.0%)
L(internal)               :    0.000 sec (  0.0%)
G(D)                      :    0.000 sec (  0.0%)
G(Z)                      :    0.000 sec (  0.0%)
Z-Vector Solution         :    0.000 sec (  0.0%)
Z-Vector Solution         :    0.000 sec (  0.0%)
3-Index Derivative 
+ Separable RIJ part      :    0.000 sec (  0.0%)
2-Index Derivative 
+ Separable RIJ part      :    0.000 sec (  0.0%)
Separable Gradient (COSX) :    0.000 sec (  0.0%)


---------------------------------------
MP2 TOTAL ENERGY:    -6025.868487050 Eh
---------------------------------------

Entering the calculation of the dispersion correction...

Checking the input atom types...

Done


-------------------------------------------------------------------------------
                          DFT DISPERSION CORRECTION                            
                                                                               
                                DFTD3 V2.1  Rev 6                               
                          USING Becke-Johnson damping                          
-------------------------------------------------------------------------------
The B2PLYP functional is recognized
Active option DFTDOPT                   ...         4   

molecular C6(AA) [au] = 68489.318014 


            DFT-D V3
 parameters
 s6 scaling factor         :     0.6400 
 a1 scaling factor         :     0.3065 
 s8 scaling factor         :     0.9147 
 a2 scaling factor         :     5.0570 
 ad hoc parameters k1-k3   :    16.0000     1.3333    -4.0000 

 Edisp/kcal,au: -50.513648919669  -0.080498614952 
 E6   /kcal   : -25.136092608 
 E8   /kcal   : -25.377556311 
 % E8         :  50.239008375 

-------------------------   ----------------
Dispersion correction           -0.080498615
-------------------------   ----------------


-------------------------   --------------------
FINAL SINGLE POINT ENERGY     -6025.948985665079
-------------------------   --------------------


                            ***************************************
                            *     ORCA property calculations      *
                            ***************************************


  WARNING: The energy has been calculated at the MP2 level but the densities
           used in the property calculations are still SCF densities
           MP2 response densities have not been calculated 
           use %mp2 Density relaxed end
           or  %mp2 Density unrelaxed end

                                    ---------------------
                                    Active property flags
                                    ---------------------
   (+) Dipole Moment


------------------------------------------------------------------------------
                       ORCA ELECTRIC PROPERTIES CALCULATION
------------------------------------------------------------------------------

Dipole Moment Calculation                       ... on
Quadrupole Moment Calculation                   ... off
Polarizability Calculation                      ... off
GBWName                                         ... Pb2Cl11_6NH3CH3_-1_mp2_sp2_3.orca.gbw
Electron density file                           ... Pb2Cl11_6NH3CH3_-1_mp2_sp2_3.orca.scfp.tmp

-------------
DIPOLE MOMENT
-------------
                                X             Y             Z
Electronic contribution:    -28.12473      -0.87084      37.03750
Nuclear contribution   :     29.49541       0.06876     -38.13797
                        -----------------------------------------
Total Dipole Moment    :      1.37068      -0.80208      -1.10047
                        -----------------------------------------
Magnitude (a.u.)       :      1.93213
Magnitude (Debye)      :      4.91109


Timings for individual modules:

Sum of individual times         ...     4241.406 sec (=  70.690 min)
GTO integral calculation        ...        6.696 sec (=   0.112 min)   0.2 %
SCF iterations                  ...     1154.413 sec (=  19.240 min)  27.2 %
MP2 module                      ...     3080.298 sec (=  51.338 min)  72.6 %
                             ****ORCA TERMINATED NORMALLY****
TOTAL RUN TIME: 0 days 1 hours 10 minutes 42 seconds 258 msec
