
                                 *****************
                                 * O   R   C   A *
                                 *****************

           --- An Ab Initio, DFT and Semiempirical electronic structure package ---

                  #######################################################
                  #                        -***-                        #
                  #  Department of molecular theory and spectroscopy    #
                  #              Directorship: Frank Neese              #
                  # Max Planck Institute for Chemical Energy Conversion #
                  #                  D-45470 Muelheim/Ruhr              #
                  #                       Germany                       #
                  #                                                     #
                  #                  All rights reserved                #
                  #                        -***-                        #
                  #######################################################


                         Program Version 3.0.3 - RELEASE   -


 With contributions from (in alphabetic order):
   Ute Becker             : Parallelization
   Dmytro Bykov           : SCF Hessian
   Dmitry Ganyushin       : Spin-Orbit,Spin-Spin,Magnetic field MRCI
   Andreas Hansen         : Spin unrestricted coupled pair/coupled cluster methods
   Dimitrios Liakos       : Extrapolation schemes; parallel MDCI
   Robert Izsak           : Overlap fitted RIJCOSX, COSX-SCS-MP3
   Christian Kollmar      : KDIIS, OOCD, Brueckner-CCSD(T), CCSD density
   Simone Kossmann        : Meta GGA functionals, TD-DFT gradient, OOMP2, MP2 Hessian
   Taras Petrenko         : DFT Hessian,TD-DFT gradient, ASA and ECA modules, normal mode analysis, Resonance Raman, ABS, FL, XAS/XES, NRVS
   Christoph Reimann      : Effective Core Potentials
   Michael Roemelt        : Restricted open shell CIS
   Christoph Riplinger    : Improved optimizer, TS searches, QM/MM, DLPNO-CCSD
   Barbara Sandhoefer     : DKH picture change effects
   Igor Schapiro          : Molecular dynamics
   Kantharuban Sivalingam : CASSCF convergence, NEVPT2
   Boris Wezisla          : Elementary symmetry handling
   Frank Wennmohs         : Technical directorship


 We gratefully acknowledge several colleagues who have allowed us to
 interface, adapt or use parts of their codes:
   Stefan Grimme, W. Hujo, H. Kruse, T. Risthaus : VdW corrections, initial TS optimization,
                                                   DFT functionals, gCP
   Ed Valeev                                     : LibInt (2-el integral package), F12 methods
   Garnet Chan, S. Sharma, R. Olivares           : DMRG
   Ulf Ekstrom                                   : XCFun DFT Library
   Mihaly Kallay                                 : mrcc  (arbitrary order and MRCC methods)
   Andreas Klamt, Michael Diedenhofen            : otool_cosmo (COSMO solvation model)
   Frank Weinhold                                : gennbo (NPA and NBO analysis)
   Christopher J. Cramer and Donald G. Truhlar   : smd solvation model


 Your calculation uses the libint2 library for the computation of 2-el integrals
 For citations please refer to: http://libint.valeyev.net

 This ORCA versions uses:
   CBLAS   interface :  Fast vector & matrix operations
   LAPACKE interface :  Fast linear algebra routines
   SCALAPACK package :  Parallel linear algebra routines


Your calculation utilizes the basis: Ahlrichs-TZV
Cite in your paper:
H - Kr: A. Schaefer, H. Horn and R. Ahlrichs, J. Chem. Phys. 97, 2571 (1992).

The def2-TZV basis will be loaded
Cite in your paper:
 	F. Weigend, R. Ahlrichs, Phys. Chem. Chem. Phys. 2005, 7, 3297.

Your calculation utilizes the atom-pairwise dispersion correction
with the Becke-Johnson damping scheme (D3BJ)
Cite in your paper:
S.Grimme, S.Ehrlich, L.Goerigk, J Comput Chem, (2011), 32, 1456–1465 
S.Grimme, J.Antony, S.Ehrlich and H.Krieg, J.Chem.Phys., 132, (2010), 154104 
   

================================================================================
                                        WARNINGS
                       Please study these warnings very carefully!
================================================================================

WARNING: The RI method has been chosen with no auxiliary basis (AUX or GTOAUX in BASIS block)
        Standard TZV/J expansion basis used (GTOAUX=TZV_J)

Now building the actual basis set
cite the ECPs for Pb [SD(60,MDF)] as follows:
  B. Metz, H. Stoll, M. Dolg, J. Chem. Phys. 113, 2563 (2000).

ECP parameters for Pb [SD(60,MDF)] have been obtained from:
  pseudopotential library of the Stuttgart/Cologne group
  http://www.theochem.uni-stuttgart.de/pseudopotentials/

cite the ECP basis sets for Pb [DEF2-TZVP] as follows:
  F. Weigend, R. Ahlrichs; Phys. Chem. Chem. Phys. 7, 3297(2005).

ECP basis sets for Pb [DEF2-TZVP] have been obtained from:
  Turbomole basis set library
  ftp://ftp.chemie.uni-karlsruhe.de/pub/basen/



INFO   : the flag for use of LIBINT has been found!

================================================================================
                                       INPUT FILE
================================================================================
NAME = PbMACl3_mp2_md_6.orca
|  1> ! RIJCOSX RI-B2PLYP D3BJ def2-TZVP ECP{def2-TZVP} TIGHTSCF Grid5 FinalGrid6 SlowConv MORead
|  2> %method
|  3>  RunTyp Gradient
|  4>  end
|  5> %maxcore 1000
|  6> %moinp "previous.gbw"
|  7> *xyz 0 1
|  8> C -1.021300 -0.518706 -0.367842 
|  9> N -0.390338 -0.330711 -1.737710 
| 10> H -0.564090 -1.270090 -2.322690 
| 11> H 0.603945 -0.185407 -1.720580 
| 12> H -0.738331 0.372459 -2.242760 
| 13> H -0.780365 -1.511430 0.041620 
| 14> H -2.136150 -0.563044 -0.484982 
| 15> H -0.621884 0.292944 0.263429 
| 16> Pb -3.121080 -2.579610 -2.429220 
| 17> Cl -0.679117 -3.251140 -2.416770 
| 18> Cl -3.482440 -0.096927 -2.512930 
| 19> Cl -4.286990 -3.571960 -0.547716 
| 20> *
| 21> 
| 22>                          ****END OF INPUT****
================================================================================

                     *******************************
                     * Energy+Gradient Calculation *
                     *******************************

---------------------------------
CARTESIAN COORDINATES (ANGSTROEM)
---------------------------------
  C     -1.021300   -0.518706   -0.367842
  N     -0.390338   -0.330711   -1.737710
  H     -0.564090   -1.270090   -2.322690
  H      0.603945   -0.185407   -1.720580
  H     -0.738331    0.372459   -2.242760
  H     -0.780365   -1.511430    0.041620
  H     -2.136150   -0.563044   -0.484982
  H     -0.621884    0.292944    0.263429
  Pb    -3.121080   -2.579610   -2.429220
  Cl    -0.679117   -3.251140   -2.416770
  Cl    -3.482440   -0.096927   -2.512930
  Cl    -4.286990   -3.571960   -0.547716

----------------------------
CARTESIAN COORDINATES (A.U.)
----------------------------
  NO LB      ZA    FRAG    MASS        X           Y           Z
   0 C     6.0000    0    12.011         -1.929977300573775         -0.980212284021757         -0.695120640553861
   1 N     7.0000    0    14.007         -0.737631919662554         -0.624953219475231         -3.283796000176298
   2 H     1.0000    0     1.008         -1.065975614883639         -2.400122265432042         -4.389247993997552
   3 H     1.0000    0     1.008          1.141290649951070         -0.350368453311937         -3.251424991502227
   4 H     1.0000    0     1.008         -1.395243386184212          0.703845506114175         -4.238202184113226
   5 H     1.0000    0     1.008         -1.474676134497457         -2.856188770592598          0.078650401693802
   6 H     1.0000    0     1.008         -4.036738480975882         -1.063998961347557         -0.916483159881397
   7 H     1.0000    0     1.008         -1.175190447067484          0.553583932575427          0.497808665732741
   8 Pb   22.0000*   0   207.200  -5.897986442058940  -4.874756432324601  -4.590560519044183
   9 Cl   17.0000    0    35.453         -1.283345142890199         -6.143764223036738         -4.567033428676863
  10 Cl   17.0000    0    35.453         -6.580857877812724         -0.183165484982585         -4.748749493714731
  11 Cl   17.0000    0    35.453         -8.101237038859066         -6.750026161321354         -1.035033239166812
* core charge reduced due to ECP

--------------------------------
INTERNAL COORDINATES (ANGSTROEM)
--------------------------------
 C      0   0   0   0.000000     0.000     0.000
 N      1   0   0   1.519866     0.000     0.000
 H      2   1   0   1.120189   107.611     0.000
 H      2   1   3   1.004990   114.409   241.913
 H      2   1   3   0.933072   115.229   119.183
 H      1   2   3   1.100550   110.856    44.443
 H      1   2   3   1.121864   108.864   292.121
 H      1   2   3   1.103092   105.930   165.922
 Pb     3   2   1   2.874785   122.637    46.217
 Cl     3   2   1   1.986616   150.453   321.513
 Cl     7   1   2   2.478373   128.157   351.045
 Cl     9   3   2   2.425729   125.811   296.339

---------------------------
INTERNAL COORDINATES (A.U.)
---------------------------
 C      0   0   0   0.000000     0.000     0.000
 N      1   0   0   2.872131     0.000     0.000
 H      2   1   0   2.116851   107.611     0.000
 H      2   1   3   1.899156   114.409   241.913
 H      2   1   3   1.763250   115.229   119.183
 H      1   2   3   2.079738   110.856    44.443
 H      1   2   3   2.120015   108.864   292.121
 H      1   2   3   2.084542   105.930   165.922
 Pb     3   2   1   5.432556   122.637    46.217
 Cl     3   2   1   3.754159   150.453   321.513
 Cl     7   1   2   4.683447   128.157   351.045
 Cl     9   3   2   4.583964   125.811   296.339

---------------------
BASIS SET INFORMATION
---------------------
There are 5 groups of distinct atoms

 Group   1 Type C   : 11s6p2d1f contracted to 5s3p2d1f pattern {62111/411/11/1}
 Group   2 Type N   : 11s6p2d1f contracted to 5s3p2d1f pattern {62111/411/11/1}
 Group   3 Type H   : 5s1p contracted to 3s1p pattern {311/1}
 Group   4 Type Pb  : 10s9p8d2f contracted to 6s5p3d2f pattern {421111/33111/611/11}
 Group   5 Type Cl  : 14s9p3d1f contracted to 5s5p2d1f pattern {73211/51111/21/1}

Atom   0C    basis set group =>   1
Atom   1N    basis set group =>   2
Atom   2H    basis set group =>   3
Atom   3H    basis set group =>   3
Atom   4H    basis set group =>   3
Atom   5H    basis set group =>   3
Atom   6H    basis set group =>   3
Atom   7H    basis set group =>   3
Atom   8Pb   basis set group =>   4
Atom   9Cl   basis set group =>   5
Atom  10Cl   basis set group =>   5
Atom  11Cl   basis set group =>   5
-------------------------------
AUXILIARY BASIS SET INFORMATION
-------------------------------
There are 5 groups of distinct atoms

 Group   1 Type C   : 12s5p4d2f1g contracted to 6s4p3d1f1g pattern {711111/2111/211/2/1}
 Group   2 Type N   : 12s5p4d2f1g contracted to 6s4p3d1f1g pattern {711111/2111/211/2/1}
 Group   3 Type H   : 5s2p1d contracted to 3s1p1d pattern {311/2/1}
 Group   4 Type Pb  : 31s12p8d6f3g contracted to 31s12p8d6f3g pattern {1111111111111111111111111111111/111111111111/11111111/111111/111}
 Group   5 Type Cl  : 14s5p5d2f1g contracted to 8s4p3d1f1g pattern {71111111/2111/311/2/1}

Atom   0C    basis set group =>   1
Atom   1N    basis set group =>   2
Atom   2H    basis set group =>   3
Atom   3H    basis set group =>   3
Atom   4H    basis set group =>   3
Atom   5H    basis set group =>   3
Atom   6H    basis set group =>   3
Atom   7H    basis set group =>   3
Atom   8Pb   basis set group =>   4
Atom   9Cl   basis set group =>   5
Atom  10Cl   basis set group =>   5
Atom  11Cl   basis set group =>   5

-------------------------
ECP PARAMETER INFORMATION
-------------------------

 Group 1, Type Pb ECP SD(60,MDF) (replacing 60 core electrons, lmax=5)

Atom   8Pb   ECP group =>   1


------------------------------------------------------------------------------
                           ORCA GTO INTEGRAL CALCULATION
                           -- RI-GTO INTEGRALS CHOSEN --
------------------------------------------------------------------------------

                         BASIS SET STATISTICS AND STARTUP INFO

Gaussian basis set:
 # of primitive gaussian shells          ...  186
 # of primitive gaussian functions       ...  420
 # of contracted shells                  ...  101
 # of contracted basis functions         ...  259
 Highest angular momentum                ...    3
 Maximum contraction depth               ...    7
Auxiliary gaussian basis set:
 # of primitive gaussian shells          ...  237
 # of primitive gaussian functions       ...  643
 # of contracted shells                  ...  171
 # of contracted aux-basis functions     ...  493
 Highest angular momentum                ...    4
 Maximum contraction depth               ...    7
Ratio of auxiliary to basis functions    ...  1.90
Integral package used                  ... LIBINT
 One Electron integrals                  
   ECP integrals                         ... done
 Ordering auxiliary basis shells         ... done
 Integral threshhold             Thresh  ...  2.500e-11
 Primitive cut-off               TCut    ...  2.500e-12
 Pre-screening matrix                    ... done
 Shell pair data                         ... 
 Ordering of the shell pairs             ... done (   0.001 sec) 4438 of 5151 pairs
 Determination of significant pairs      ... done (   0.000 sec)
 Creation of shell pair data             ... done (   0.002 sec)
 Storage of shell pair data              ... done (   0.001 sec)
 Shell pair data done in (   0.003 sec)
 Computing two index integrals           ... done
 Cholesky decomposition of the V-matrix  ... done


Timings:
 Total evaluation time                   ...   0.561 sec (  0.009 min)
 One electron matrix time                ...   0.303 sec (  0.005 min) = 54.1%
 Schwartz matrix evaluation time         ...   0.212 sec (  0.004 min) = 37.8%
 Two index repulsion integral time       ...   0.008 sec (  0.000 min) =  1.4%
 Cholesky decomposition of V             ...   0.007 sec (  0.000 min) =  1.3%
 Three index repulsion integral time     ...   0.000 sec (  0.000 min) =  0.0%

-------------------------------------------------------------------------------
                                 ORCA SCF
-------------------------------------------------------------------------------

------------
SCF SETTINGS
------------
Hamiltonian:
 Density Functional     Method          .... DFT(GTOs)
 Exchange Functional    Exchange        .... B88
   X-Alpha parameter    XAlpha          ....  0.666667
   Becke's b parameter  XBeta           ....  0.004200
 Correlation Functional Correlation     .... LYP
 LDA part of GGA corr.  LDAOpt          .... VWN-3
 Gradients option       PostSCFGGA      .... off
 Hybrid DFT is turned on
   Fraction HF Exchange ScalHFX         ....  0.530000
   Scaling of DF-GGA-X  ScalDFX         ....  0.470000
   Scaling of DF-GGA-C  ScalDFC         ....  0.730000
   Scaling of DF-LDA-C  ScalLDAC        ....  0.730000
   Perturbative correction              ....  0.270000
 RI-approximation to the Coulomb term is turned on
   Number of auxiliary basis functions  .... 493
   RIJ-COSX (HFX calculated with COS-X)).... on


General Settings:
 Integral files         IntName         .... PbMACl3_mp2_md_6.orca
 Hartree-Fock type      HFTyp           .... RHF
 Total Charge           Charge          ....    0
 Multiplicity           Mult            ....    1
 Number of Electrons    NEL             ....   92
 Basis Dimension        Dim             ....  259
 Nuclear Repulsion      ENuc            ....    600.5262986247 Eh

Convergence Acceleration:
 DIIS                   CNVDIIS         .... on
   Start iteration      DIISMaxIt       ....     0
   Startup error        DIISStart       ....  0.200000
   # of expansion vecs  DIISMaxEq       ....     5
   Bias factor          DIISBfac        ....   1.050
   Max. coefficient     DIISMaxC        ....  10.000
 Newton-Raphson         CNVNR           .... off
 SOSCF                  CNVSOSCF        .... on
   Start iteration      SOSCFMaxIt      ....   150
   Startup grad/error   SOSCFStart      ....  0.001000
 Level Shifting         CNVShift        .... on
   Level shift para.    LevelShift      ....    0.2500
   Turn off err/grad.   ShiftErr        ....    0.0000
 Zerner damping         CNVZerner       .... off
 Static damping         CNVDamp         .... on
   Fraction old density DampFac         ....    0.8500
   Max. Damping (<1)    DampMax         ....    0.9800
   Min. Damping (>=0)   DampMin         ....    0.0000
   Turn off err/grad.   DampErr         ....    0.0300
 Fernandez-Rico         CNVRico         .... off

SCF Procedure:
 Maximum # iterations   MaxIter         ....   125
 SCF integral mode      SCFMode         .... Direct
   Integral package                     .... LIBINT
 Reset frequeny         DirectResetFreq ....    20
 Integral Threshold     Thresh          ....  2.500e-11 Eh
 Primitive CutOff       TCut            ....  2.500e-12 Eh

Convergence Tolerance:
 Convergence Check Mode ConvCheckMode   .... Total+1el-Energy
 Energy Change          TolE            ....  1.000e-08 Eh
 1-El. energy change                    ....  1.000e-05 Eh
 Orbital Gradient       TolG            ....  1.000e-05
 Orbital Rotation angle TolX            ....  1.000e-05
 DIIS Error             TolErr          ....  5.000e-07


Diagonalization of the overlap matrix:
Smallest eigenvalue                        ... 9.369e-04
Time for diagonalization                   ...    0.017 sec
Threshold for overlap eigenvalues          ... 1.000e-08
Number of eigenvalues below threshold      ... 0
Time for construction of square roots      ...    0.005 sec
Total time needed                          ...    0.022 sec

---------------------
INITIAL GUESS: MOREAD
---------------------
Guess MOs are being read from file: previous.gbw
Input geometry compatible with but different from current geometry
Input basis set matches current basis set (good)
MOs were renormalized
MOs were reorthogonalized (Schmidt)
                      ------------------
                      INITIAL GUESS DONE (   0.1 sec)
                      ------------------
-------------------
DFT GRID GENERATION
-------------------

General Integration Accuracy     IntAcc      ...  5.010
Radial Grid Type                 RadialGrid  ... Gauss-Chebyshev
Angular Grid (max. acc.)         AngularGrid ... Lebedev-434
Angular grid pruning method      GridPruning ... 3 (G Style)
Weight generation scheme         WeightScheme... Becke
Basis function cutoff            BFCut       ...    1.0000e-11
Integration weight cutoff        WCut        ...    1.0000e-14
Grids for H and He will be reduced by one unit

# of grid points (after initial pruning)     ... 115882 (   0.0 sec)
# of grid points (after weights+screening)   ... 108242 (   0.2 sec)
nearest neighbour list constructed           ...    0.0 sec
Grid point re-assignment to atoms done       ...    0.0 sec
Grid point division into batches done        ...    0.9 sec
Reduced shell lists constructed in    3.3 sec

Total number of grid points                  ...   108242
Total number of batches                      ...     1699
Average number of points per batch           ...       63
Average number of grid points per atom       ...     9020
Average number of shells per batch           ...    55.46 (54.91%)
Average number of basis functions per batch  ...   146.68 (56.63%)
Average number of large shells per batch     ...    41.99 (75.71%)
Average number of large basis fcns per batch ...   108.64 (74.07%)
Maximum spatial batch extension              ...  32.51, 34.71, 35.95 au
Average spatial batch extension              ...   2.36,  2.40,  2.49 au

Time for grid setup =    3.551 sec

--------------------
COSX GRID GENERATION
--------------------

General Integration Accuracy     IntAcc      ...  3.340
Radial Grid Type                 RadialGrid  ... Gauss-Chebyshev
Angular Grid (max. acc.)         AngularGrid ... Lebedev-50
Angular grid pruning method      GridPruning ... 3 (G Style)
Weight generation scheme         WeightScheme... Becke
Basis function cutoff            BFCut       ...    1.0000e-11
Integration weight cutoff        WCut        ...    1.0000e-14
Grids for H and He will be reduced by one unit

# of grid points (after initial pruning)     ...   6578 (   0.0 sec)
# of grid points (after weights+screening)   ...   6247 (   0.0 sec)
nearest neighbour list constructed           ...    0.0 sec
Grid point re-assignment to atoms done       ...    0.0 sec
Grid point division into batches done        ...    0.0 sec
Reduced shell lists constructed in    0.2 sec

Total number of grid points                  ...     6247
Total number of batches                      ...      102
Average number of points per batch           ...       61
Average number of grid points per atom       ...      521
Average number of shells per batch           ...    67.26 (66.60%)
Average number of basis functions per batch  ...   181.17 (69.95%)
Average number of large shells per batch     ...    52.45 (77.97%)
Average number of large basis fcns per batch ...   137.71 (76.01%)
Maximum spatial batch extension              ...  26.29, 27.81, 30.25 au
Average spatial batch extension              ...   6.12,  5.99,  6.74 au

Overlap Fitting                  UseSFitting ... on
Constructing numerical overlap ... done (      0.1 sec)
Inverting numerical overlap    ... done (      0.0 sec)
Obtaining analytic overlap     ... done (      0.0 sec)
Final contraction and storage  ... done (      0.0 sec)


General Integration Accuracy     IntAcc      ...  3.670
Radial Grid Type                 RadialGrid  ... Gauss-Chebyshev
Angular Grid (max. acc.)         AngularGrid ... Lebedev-50
Angular grid pruning method      GridPruning ... 3 (G Style)
Weight generation scheme         WeightScheme... Becke
Basis function cutoff            BFCut       ...    1.0000e-11
Integration weight cutoff        WCut        ...    1.0000e-14
Grids for H and He will be reduced by one unit

# of grid points (after initial pruning)     ...   8124 (   0.0 sec)
# of grid points (after weights+screening)   ...   7698 (   0.0 sec)
nearest neighbour list constructed           ...    0.0 sec
Grid point re-assignment to atoms done       ...    0.0 sec
Grid point division into batches done        ...    0.0 sec
Reduced shell lists constructed in    0.2 sec

Total number of grid points                  ...     7698
Total number of batches                      ...      127
Average number of points per batch           ...       60
Average number of grid points per atom       ...      642
Average number of shells per batch           ...    66.29 (65.63%)
Average number of basis functions per batch  ...   178.16 (68.79%)
Average number of large shells per batch     ...    51.95 (78.37%)
Average number of large basis fcns per batch ...   136.25 (76.47%)
Maximum spatial batch extension              ...  26.94, 29.16, 30.71 au
Average spatial batch extension              ...   5.77,  5.52,  6.32 au

Overlap Fitting                  UseSFitting ... on
Constructing numerical overlap ... done (      0.1 sec)
Inverting numerical overlap    ... done (      0.0 sec)
Obtaining analytic overlap     ... done (      0.0 sec)
Final contraction and storage  ... done (      0.0 sec)


General Integration Accuracy     IntAcc      ...  4.010
Radial Grid Type                 RadialGrid  ... Gauss-Chebyshev
Angular Grid (max. acc.)         AngularGrid ... Lebedev-110
Angular grid pruning method      GridPruning ... 3 (G Style)
Weight generation scheme         WeightScheme... Becke
Basis function cutoff            BFCut       ...    1.0000e-11
Integration weight cutoff        WCut        ...    1.0000e-14
Grids for H and He will be reduced by one unit

# of grid points (after initial pruning)     ...  15170 (   0.0 sec)
# of grid points (after weights+screening)   ...  14405 (   0.0 sec)
nearest neighbour list constructed           ...    0.0 sec
Grid point re-assignment to atoms done       ...    0.0 sec
Grid point division into batches done        ...    0.0 sec
Reduced shell lists constructed in    0.4 sec

Total number of grid points                  ...    14405
Total number of batches                      ...      231
Average number of points per batch           ...       62
Average number of grid points per atom       ...     1200
Average number of shells per batch           ...    62.68 (62.06%)
Average number of basis functions per batch  ...   167.72 (64.76%)
Average number of large shells per batch     ...    48.33 (77.10%)
Average number of large basis fcns per batch ...   126.44 (75.39%)
Maximum spatial batch extension              ...  29.48, 31.74, 30.78 au
Average spatial batch extension              ...   4.93,  4.79,  5.24 au

Overlap Fitting                  UseSFitting ... on
Constructing numerical overlap ... done (      0.2 sec)
Inverting numerical overlap    ... done (      0.0 sec)
Obtaining analytic overlap     ... done (      0.0 sec)
Final contraction and storage  ... done (      0.0 sec)

Time for X-Grid setup             =    1.382 sec
--------------
SCF ITERATIONS
--------------
ITER       Energy         Delta-E        Max-DP      RMS-DP      [F,P]     Damp
               ***  Starting incremental Fock matrix formation  ***
  0  -1664.0434080689   0.000000000000 0.10563222  0.00197250  0.5018601 0.8500
  1  -1664.7410547301  -0.697646661268 0.09805956  0.00179716  0.3846994 0.8500
                               ***Turning on DIIS***
  2  -1665.3337808455  -0.592726115339 0.08136594  0.00154623  0.3271216 0.8500
  3  -1665.8376804893  -0.503899643802 0.06581494  0.00131573  0.2781501 0.8500
  4  -1666.2732351867  -0.435554697464 0.05437334  0.00113704  0.2364852 0.8500
  5  -1666.6485320886  -0.375296901833 0.04561023  0.00098754  0.2010402 0.8500
  6  -1666.9743301306  -0.325798041983 0.03894820  0.00085304  0.1708961 0.8500
  7  -1667.2580262219  -0.283696091340 0.03352724  0.00073258  0.1462433 0.8500
  8  -1667.5047745065  -0.246748284629 0.02896175  0.00062610  0.1258321 0.8500
  9  -1667.7179379554  -0.213163448911 0.02475015  0.00053356  0.1080653 0.8500
 10  -1667.9013995398  -0.183461584366 0.02098489  0.00045443  0.0926390 0.8500
 11  -1668.0590434436  -0.157643903749 0.01778424  0.00038712  0.0793121 0.8500
 12  -1668.1943494188  -0.135305975284 0.01511006  0.00032983  0.0678390 0.8500
 13  -1668.3103384807  -0.115989061873 0.01286385  0.00028093  0.0579812 0.8500
 14  -1668.4096317296  -0.099293248890 0.01094868  0.00023918  0.0495233 0.8500
 15  -1668.4945310016  -0.084899271999 0.00930773  0.00020359  0.0422762 0.8500
 16  -1668.5670563925  -0.072525390893 0.00790871  0.00017330  0.0360740 0.8500
 17  -1668.6289665796  -0.061910187081 0.00672202  0.00014753  0.0307705 0.8500
 18  -1668.6817828446  -0.052816264973 0.03810843  0.00083727  0.0262384 0.0000
                      *** Initiating the SOSCF procedure ***
                           *** Shutting down DIIS ***
                      *** Re-Reading the Fockian *** 
                      *** Removing any level shift *** 
ITER      Energy       Delta-E        Grad      Rot      Max-DP    RMS-DP
 19  -1668.98446604  -0.3026831905  0.000295  0.000295  0.000422  0.000010
               *** Restarting incremental Fock matrix formation ***
 20  -1668.98448259  -0.0000165537  0.000116  0.000457  0.000404  0.000010
 21  -1668.98448328  -0.0000006893  0.000098  0.000158  0.000150  0.000004
 22  -1668.98448357  -0.0000002883  0.000015  0.000049  0.000045  0.000001
 23  -1668.98448357  -0.0000000057  0.000004  0.000021  0.000023  0.000000
 24  -1668.98448358  -0.0000000052  0.000003  0.000004  0.000005  0.000000
                  ***Gradient check signals convergence***
              ***Rediagonalizing the Fockian in SOSCF/NRSCF***

               *****************************************************
               *                     SUCCESS                       *
               *           SCF CONVERGED AFTER  25 CYCLES          *
               *****************************************************

Old exchange energy                            =    -59.219639369 Eh
New exchange energy                            =    -59.222246806 Eh
Exchange energy change after final integration =     -0.002607437 Eh
Total energy after final integration           =  -1668.987091021 Eh
Final COS-X integration done in                =    19.902 sec

----------------
TOTAL SCF ENERGY
----------------

Total Energy       :        -1668.98709102 Eh          -45415.44762 eV

Components:
Nuclear Repulsion  :          600.52629862 Eh           16341.15135 eV
Electronic Energy  :        -2269.51338965 Eh          -61756.59898 eV

One Electron Energy:        -3571.93148462 Eh          -97197.19711 eV
Two Electron Energy:         1302.41809498 Eh           35440.59813 eV

Virial components:
Potential Energy   :        -3206.91010277 Eh          -87264.46034 eV
Kinetic Energy     :         1537.92301175 Eh           41849.01271 eV
Virial Ratio       :            2.08522148


DFT components:
N(Alpha)           :       46.000010327756 electrons
N(Beta)            :       46.000010327756 electrons
N(Total)           :       92.000020655512 electrons
E(X)               :      -52.593325718459 Eh       
E(C)               :       -2.609962159578 Eh       
E(XC)              :      -55.203287878037 Eh       

---------------
SCF CONVERGENCE
---------------

  Last Energy change         ...   -6.1668e-09  Tolerance :   1.0000e-08
  Last MAX-Density change    ...    1.0059e-13  Tolerance :   1.0000e-07
  Last RMS-Density change    ...    7.3637e-16  Tolerance :   5.0000e-09
  Last Orbital Gradient      ...    4.9554e-07  Tolerance :   1.0000e-05
  Last Orbital Rotation      ...    7.3670e-07  Tolerance :   1.0000e-05

             **** THE GBW FILE WAS UPDATED (PbMACl3_mp2_md_6.orca.gbw) ****
             **** DENSITY FILE WAS UPDATED (PbMACl3_mp2_md_6.orca.scfp.tmp) ****
             **** ENERGY FILE WAS UPDATED (PbMACl3_mp2_md_6.orca.en.tmp) ****
----------------
ORBITAL ENERGIES
----------------

  NO   OCC          E(Eh)            E(eV) 
   0   2.0000    -102.865211     -2799.1047 
   1   2.0000    -102.847540     -2798.6239 
   2   2.0000    -102.837356     -2798.3467 
   3   2.0000     -14.990033      -407.8995 
   4   2.0000     -10.719448      -291.6910 
   5   2.0000      -9.873740      -268.6781 
   6   2.0000      -9.855763      -268.1889 
   7   2.0000      -9.845227      -267.9023 
   8   2.0000      -7.510273      -204.3649 
   9   2.0000      -7.509452      -204.3426 
  10   2.0000      -7.508656      -204.3209 
  11   2.0000      -7.492629      -203.8848 
  12   2.0000      -7.491085      -203.8428 
  13   2.0000      -7.490869      -203.8369 
  14   2.0000      -7.482368      -203.6056 
  15   2.0000      -7.480333      -203.5502 
  16   2.0000      -7.480172      -203.5458 
  17   2.0000      -5.781576      -157.3247 
  18   2.0000      -3.554462       -96.7218 
  19   2.0000      -3.551802       -96.6495 
  20   2.0000      -3.550648       -96.6180 
  21   2.0000      -1.173268       -31.9262 
  22   2.0000      -0.959340       -26.1050 
  23   2.0000      -0.957447       -26.0534 
  24   2.0000      -0.949761       -25.8443 
  25   2.0000      -0.943760       -25.6810 
  26   2.0000      -0.941071       -25.6078 
  27   2.0000      -0.891392       -24.2560 
  28   2.0000      -0.872621       -23.7452 
  29   2.0000      -0.864683       -23.5292 
  30   2.0000      -0.849172       -23.1071 
  31   2.0000      -0.715037       -19.4571 
  32   2.0000      -0.688443       -18.7335 
  33   2.0000      -0.606606       -16.5066 
  34   2.0000      -0.552397       -15.0315 
  35   2.0000      -0.536234       -14.5917 
  36   2.0000      -0.514816       -14.0089 
  37   2.0000      -0.397080       -10.8051 
  38   2.0000      -0.387911       -10.5556 
  39   2.0000      -0.372965       -10.1489 
  40   2.0000      -0.362849        -9.8736 
  41   2.0000      -0.350654        -9.5418 
  42   2.0000      -0.348705        -9.4887 
  43   2.0000      -0.335639        -9.1332 
  44   2.0000      -0.331085        -9.0093 
  45   2.0000      -0.259105        -7.0506 
  46   0.0000      -0.011761        -0.3200 
  47   0.0000       0.009990         0.2718 
  48   0.0000       0.051980         1.4144 
  49   0.0000       0.053286         1.4500 
  50   0.0000       0.071046         1.9333 
  51   0.0000       0.087842         2.3903 
  52   0.0000       0.102959         2.8017 
  53   0.0000       0.113409         3.0860 
  54   0.0000       0.131871         3.5884 
  55   0.0000       0.143210         3.8970 
  56   0.0000       0.156054         4.2465 
  57   0.0000       0.159110         4.3296 
  58   0.0000       0.169122         4.6021 
  59   0.0000       0.204010         5.5514 
  60   0.0000       0.220713         6.0059 
  61   0.0000       0.234192         6.3727 
  62   0.0000       0.262665         7.1475 
  63   0.0000       0.277703         7.5567 
  64   0.0000       0.283888         7.7250 
  65   0.0000       0.285977         7.7818 
  66   0.0000       0.304450         8.2845 
  67   0.0000       0.322183         8.7671 
  68   0.0000       0.345127         9.3914 
  69   0.0000       0.366637         9.9767 
  70   0.0000       0.387638        10.5482 
  71   0.0000       0.413950        11.2642 
  72   0.0000       0.418515        11.3884 
  73   0.0000       0.430318        11.7095 
  74   0.0000       0.439973        11.9723 
  75   0.0000       0.450207        12.2508 
  76   0.0000       0.451068        12.2742 
  77   0.0000       0.457884        12.4597 
  78   0.0000       0.461615        12.5612 
  79   0.0000       0.473091        12.8735 
  80   0.0000       0.477478        12.9928 
  81   0.0000       0.493857        13.4385 
  82   0.0000       0.498329        13.5602 
  83   0.0000       0.501552        13.6479 
  84   0.0000       0.510137        13.8815 
  85   0.0000       0.521161        14.1815 
  86   0.0000       0.532758        14.4971 
  87   0.0000       0.536195        14.5906 
  88   0.0000       0.556890        15.1537 
  89   0.0000       0.563197        15.3254 
  90   0.0000       0.569511        15.4972 
  91   0.0000       0.580347        15.7920 
  92   0.0000       0.596950        16.2438 
  93   0.0000       0.614494        16.7212 
  94   0.0000       0.618136        16.8203 
  95   0.0000       0.634826        17.2745 
  96   0.0000       0.649371        17.6703 
  97   0.0000       0.654632        17.8134 
  98   0.0000       0.678289        18.4572 
  99   0.0000       0.697121        18.9696 
 100   0.0000       0.710370        19.3302 
 101   0.0000       0.722979        19.6732 
 102   0.0000       0.750541        20.4233 
 103   0.0000       0.769850        20.9487 
 104   0.0000       0.811029        22.0692 
 105   0.0000       0.843024        22.9398 
 106   0.0000       0.858254        23.3543 
 107   0.0000       0.870483        23.6870 
 108   0.0000       0.892534        24.2871 
 109   0.0000       0.912124        24.8202 
 110   0.0000       0.922022        25.0895 
 111   0.0000       0.928414        25.2634 
 112   0.0000       0.932067        25.3628 
 113   0.0000       0.946597        25.7582 
 114   0.0000       0.972697        26.4684 
 115   0.0000       0.983807        26.7707 
 116   0.0000       1.005440        27.3594 
 117   0.0000       1.058009        28.7899 
 118   0.0000       1.097263        29.8580 
 119   0.0000       1.104732        30.0613 
 120   0.0000       1.106934        30.1212 
 121   0.0000       1.115706        30.3599 
 122   0.0000       1.173867        31.9425 
 123   0.0000       1.196481        32.5579 
 124   0.0000       1.207405        32.8552 
 125   0.0000       1.278872        34.7999 
 126   0.0000       1.301698        35.4210 
 127   0.0000       1.327235        36.1159 
 128   0.0000       1.365013        37.1439 
 129   0.0000       1.367714        37.2174 
 130   0.0000       1.437163        39.1072 
 131   0.0000       1.543867        42.0108 
 132   0.0000       1.550485        42.1909 
 133   0.0000       1.604074        43.6491 
 134   0.0000       1.617448        44.0130 
 135   0.0000       1.660827        45.1934 
 136   0.0000       1.703794        46.3626 
 137   0.0000       1.772419        48.2300 
 138   0.0000       1.806383        49.1542 
 139   0.0000       1.837027        49.9880 
 140   0.0000       1.875793        51.0429 
 141   0.0000       1.890510        51.4434 
 142   0.0000       1.929557        52.5059 
 143   0.0000       1.934105        52.6297 
 144   0.0000       1.939927        52.7881 
 145   0.0000       1.957404        53.2637 
 146   0.0000       1.965578        53.4861 
 147   0.0000       1.976505        53.7834 
 148   0.0000       1.985816        54.0368 
 149   0.0000       1.994737        54.2796 
 150   0.0000       2.007083        54.6155 
 151   0.0000       2.027743        55.1777 
 152   0.0000       2.044417        55.6314 
 153   0.0000       2.059105        56.0311 
 154   0.0000       2.067921        56.2710 
 155   0.0000       2.074210        56.4421 
 156   0.0000       2.086812        56.7851 
 157   0.0000       2.101543        57.1859 
 158   0.0000       2.116425        57.5908 
 159   0.0000       2.121437        57.7272 
 160   0.0000       2.138710        58.1973 
 161   0.0000       2.148438        58.4620 
 162   0.0000       2.160169        58.7812 
 163   0.0000       2.162735        58.8510 
 164   0.0000       2.182932        59.4006 
 165   0.0000       2.197729        59.8032 
 166   0.0000       2.208696        60.1017 
 167   0.0000       2.224087        60.5205 
 168   0.0000       2.237444        60.8840 
 169   0.0000       2.249896        61.2228 
 170   0.0000       2.259247        61.4772 
 171   0.0000       2.260299        61.5059 
 172   0.0000       2.267098        61.6909 
 173   0.0000       2.268898        61.7398 
 174   0.0000       2.272326        61.8331 
 175   0.0000       2.278795        62.0092 
 176   0.0000       2.299464        62.5716 
 177   0.0000       2.305003        62.7223 
 178   0.0000       2.310430        62.8700 
 179   0.0000       2.325887        63.2906 
 180   0.0000       2.335601        63.5549 
 181   0.0000       2.371077        64.5203 
 182   0.0000       2.380661        64.7811 
 183   0.0000       2.387452        64.9659 
 184   0.0000       2.401412        65.3457 
 185   0.0000       2.406603        65.4870 
 186   0.0000       2.412714        65.6533 
 187   0.0000       2.421468        65.8915 
 188   0.0000       2.426940        66.0404 
 189   0.0000       2.441855        66.4462 
 190   0.0000       2.444000        66.5046 
 191   0.0000       2.458559        66.9008 
 192   0.0000       2.468563        67.1730 
 193   0.0000       2.481022        67.5120 
 194   0.0000       2.510170        68.3052 
 195   0.0000       2.529695        68.8365 
 196   0.0000       2.544109        69.2287 
 197   0.0000       2.552494        69.4569 
 198   0.0000       2.574305        70.0504 
 199   0.0000       2.600368        70.7596 
 200   0.0000       2.609034        70.9954 
 201   0.0000       2.658995        72.3549 
 202   0.0000       2.677611        72.8615 
 203   0.0000       2.711942        73.7957 
 204   0.0000       2.733021        74.3693 
 205   0.0000       2.790290        75.9277 
 206   0.0000       2.815557        76.6152 
 207   0.0000       2.848917        77.5230 
 208   0.0000       2.856621        77.7326 
 209   0.0000       2.929810        79.7242 
 210   0.0000       2.959611        80.5351 
 211   0.0000       3.026581        82.3575 
 212   0.0000       3.090191        84.0884 
 213   0.0000       3.146193        85.6123 
 214   0.0000       3.198754        87.0425 
 215   0.0000       3.229664        87.8836 
 216   0.0000       3.279546        89.2410 
 217   0.0000       3.423907        93.1692 
 218   0.0000       3.493746        95.0696 
 219   0.0000       3.544151        96.4413 
 220   0.0000       3.554727        96.7290 
 221   0.0000       3.600174        97.9657 
 222   0.0000       3.735089       101.6369 
 223   0.0000       3.804726       103.5319 
 224   0.0000       3.896549       106.0305 
 225   0.0000       4.108917       111.8093 
 226   0.0000       4.209930       114.5580 
 227   0.0000       4.397275       119.6559 
 228   0.0000       4.488550       122.1397 
 229   0.0000       4.769779       129.7923 
 230   0.0000       4.811803       130.9358 
 231   0.0000       4.866616       132.4273 
 232   0.0000       4.912342       133.6716 
 233   0.0000       4.982843       135.5901 
 234   0.0000       5.084190       138.3479 
 235   0.0000       5.134571       139.7188 
 236   0.0000       5.259271       143.1120 
 237   0.0000       5.386482       146.5736 
 238   0.0000       5.592843       152.1890 
 239   0.0000       5.970370       162.4620 
 240   0.0000      11.050019       300.6863 
 241   0.0000      11.070755       301.2506 
 242   0.0000      11.080342       301.5114 
 243   0.0000      11.085011       301.6385 
 244   0.0000      11.101657       302.0914 
 245   0.0000      11.133120       302.9476 
 246   0.0000      11.190149       304.4994 
 247   0.0000      11.212725       305.1138 
 248   0.0000      11.246766       306.0401 
 249   0.0000      22.541825       613.3942 
 250   0.0000      25.263839       687.4640 
 251   0.0000      25.275838       687.7905 
 252   0.0000      25.392283       690.9591 
 253   0.0000      32.345210       880.1579 
 254   0.0000      35.614178       969.1111 
 255   0.0000      35.842967       975.3367 
 256   0.0000      35.860280       975.8078 
 257   0.0000      35.932517       977.7735 
 258   0.0000     123.659434      3364.9443 

                    ********************************
                    * MULLIKEN POPULATION ANALYSIS *
                    ********************************

-----------------------
MULLIKEN ATOMIC CHARGES
-----------------------
   0 C :   -0.294115
   1 N :   -0.293158
   2 H :    0.306597
   3 H :    0.275595
   4 H :    0.261841
   5 H :    0.194965
   6 H :    0.209246
   7 H :    0.152026
   8 Pb:    0.801383
   9 Cl:   -0.539163
  10 Cl:   -0.566261
  11 Cl:   -0.508957
Sum of atomic charges:   -0.0000000

--------------------------------
MULLIKEN REDUCED ORBITAL CHARGES
--------------------------------
  0 C s       :     3.301922  s :     3.301922
      pz      :     0.744805  p :     2.923152
      px      :     1.066068
      py      :     1.112279
      dz2     :     0.015881  d :     0.063291
      dxz     :     0.012856
      dyz     :     0.016319
      dx2y2   :     0.013459
      dxy     :     0.004776
      f0      :     0.001283  f :     0.005750
      f+1     :     0.001394
      f-1     :     0.000837
      f+2     :     0.000862
      f-2     :     0.000553
      f+3     :     0.000680
      f-3     :     0.000141
  1 N s       :     3.414461  s :     3.414461
      pz      :     1.266659  p :     3.831943
      px      :     1.241651
      py      :     1.323634
      dz2     :     0.009621  d :     0.044531
      dxz     :     0.006752
      dyz     :     0.015945
      dx2y2   :     0.010355
      dxy     :     0.001859
      f0      :     0.000471  f :     0.002223
      f+1     :     0.000454
      f-1     :     0.000228
      f+2     :     0.000403
      f-2     :     0.000210
      f+3     :     0.000383
      f-3     :     0.000074
  2 H s       :     0.650860  s :     0.650860
      pz      :     0.009537  p :     0.042543
      px      :     0.005085
      py      :     0.027920
  3 H s       :     0.688991  s :     0.688991
      pz      :     0.006549  p :     0.035413
      px      :     0.021278
      py      :     0.007586
  4 H s       :     0.696957  s :     0.696957
      pz      :     0.013666  p :     0.041201
      px      :     0.010673
      py      :     0.016862
  5 H s       :     0.783204  s :     0.783204
      pz      :     0.004461  p :     0.021831
      px      :     0.004305
      py      :     0.013064
  6 H s       :     0.766731  s :     0.766731
      pz      :     0.003503  p :     0.024023
      px      :     0.016688
      py      :     0.003832
  7 H s       :     0.826521  s :     0.826521
      pz      :     0.007279  p :     0.021453
      px      :     0.004772
      py      :     0.009403
  8 Pbs       :     3.942202  s :     3.942202
      pz      :     2.407407  p :     7.022411
      px      :     2.297497
      py      :     2.317507
      dz2     :     2.035119  d :    10.161285
      dxz     :     2.028061
      dyz     :     2.032180
      dx2y2   :     2.035995
      dxy     :     2.029930
      f0      :     0.009071  f :     0.072718
      f+1     :     0.009873
      f-1     :     0.009082
      f+2     :     0.010484
      f-2     :     0.006681
      f+3     :     0.012878
      f-3     :     0.014650
  9 Cls       :     5.955616  s :     5.955616
      pz      :     3.937745  p :    11.559552
      px      :     3.788687
      py      :     3.833120
      dz2     :     0.003971  d :     0.023099
      dxz     :     0.002514
      dyz     :     0.001476
      dx2y2   :     0.010603
      dxy     :     0.004535
      f0      :     0.000096  f :     0.000895
      f+1     :     0.000174
      f-1     :     0.000132
      f+2     :     0.000055
      f-2     :     0.000031
      f+3     :     0.000168
      f-3     :     0.000240
 10 Cls       :     5.953907  s :     5.953907
      pz      :     3.925090  p :    11.591881
      px      :     3.908017
      py      :     3.758774
      dz2     :     0.003274  d :     0.019612
      dxz     :     0.001199
      dyz     :     0.003181
      dx2y2   :     0.008628
      dxy     :     0.003330
      f0      :     0.000071  f :     0.000861
      f+1     :     0.000049
      f-1     :     0.000187
      f+2     :     0.000104
      f-2     :     0.000024
      f+3     :     0.000165
      f-3     :     0.000260
 11 Cls       :     5.947618  s :     5.947618
      pz      :     3.826028  p :    11.538745
      px      :     3.846072
      py      :     3.866645
      dz2     :     0.005194  d :     0.021404
      dxz     :     0.006411
      dyz     :     0.005227
      dx2y2   :     0.001691
      dxy     :     0.002881
      f0      :     0.000149  f :     0.001190
      f+1     :     0.000271
      f-1     :     0.000212
      f+2     :     0.000151
      f-2     :     0.000287
      f+3     :     0.000056
      f-3     :     0.000064


                     *******************************
                     * LOEWDIN POPULATION ANALYSIS *
                     *******************************

----------------------
LOEWDIN ATOMIC CHARGES
----------------------
   0 C :   -0.282238
   1 N :    0.113415
   2 H :    0.184290
   3 H :    0.186573
   4 H :    0.138849
   5 H :    0.132187
   6 H :    0.133489
   7 H :    0.123112
   8 Pb:   -0.154968
   9 Cl:   -0.195606
  10 Cl:   -0.227075
  11 Cl:   -0.152028

-------------------------------
LOEWDIN REDUCED ORBITAL CHARGES
-------------------------------
  0 C s       :     2.878112  s :     2.878112
      pz      :     0.885286  p :     3.094954
      px      :     1.090221
      py      :     1.119447
      dz2     :     0.073602  d :     0.275844
      dxz     :     0.058780
      dyz     :     0.074288
      dx2y2   :     0.053412
      dxy     :     0.015762
      f0      :     0.008194  f :     0.033328
      f+1     :     0.008599
      f-1     :     0.004251
      f+2     :     0.003052
      f-2     :     0.005518
      f+3     :     0.002435
      f-3     :     0.001279
  1 N s       :     2.983516  s :     2.983516
      pz      :     1.250200  p :     3.739925
      px      :     1.221206
      py      :     1.268520
      dz2     :     0.033394  d :     0.153542
      dxz     :     0.026024
      dyz     :     0.049243
      dx2y2   :     0.035786
      dxy     :     0.009094
      f0      :     0.002042  f :     0.009601
      f+1     :     0.001659
      f-1     :     0.001010
      f+2     :     0.001258
      f-2     :     0.001753
      f+3     :     0.001286
      f-3     :     0.000593
  2 H s       :     0.687084  s :     0.687084
      pz      :     0.027400  p :     0.128626
      px      :     0.013533
      py      :     0.087693
  3 H s       :     0.707196  s :     0.707196
      pz      :     0.020955  p :     0.106231
      px      :     0.061811
      py      :     0.023465
  4 H s       :     0.729553  s :     0.729553
      pz      :     0.041457  p :     0.131598
      px      :     0.034590
      py      :     0.055551
  5 H s       :     0.803267  s :     0.803267
      pz      :     0.013156  p :     0.064546
      px      :     0.014363
      py      :     0.037027
  6 H s       :     0.798738  s :     0.798738
      pz      :     0.009681  p :     0.067774
      px      :     0.046425
      py      :     0.011667
  7 H s       :     0.815525  s :     0.815525
      pz      :     0.018804  p :     0.061363
      px      :     0.015481
      py      :     0.027077
  8 Pbs       :     3.697247  s :     3.697247
      pz      :     2.554750  p :     7.522224
      px      :     2.469243
      py      :     2.498231
      dz2     :     2.138860  d :    10.706420
      dxz     :     2.121906
      dyz     :     2.119732
      dx2y2   :     2.191144
      dxy     :     2.134778
      f0      :     0.021621  f :     0.229077
      f+1     :     0.035083
      f-1     :     0.032010
      f+2     :     0.025507
      f-2     :     0.023169
      f+3     :     0.039775
      f-3     :     0.051912
  9 Cls       :     5.740725  s :     5.740725
      pz      :     3.885438  p :    11.406545
      px      :     3.755086
      py      :     3.766021
      dz2     :     0.009309  d :     0.045883
      dxz     :     0.002950
      dyz     :     0.001293
      dx2y2   :     0.024468
      dxy     :     0.007863
      f0      :     0.000098  f :     0.002452
      f+1     :     0.000571
      f-1     :     0.000242
      f+2     :     0.000092
      f-2     :     0.000039
      f+3     :     0.000592
      f-3     :     0.000817
 10 Cls       :     5.745413  s :     5.745413
      pz      :     3.868286  p :    11.439808
      px      :     3.844090
      py      :     3.727432
      dz2     :     0.008482  d :     0.039665
      dxz     :     0.001378
      dyz     :     0.003221
      dx2y2   :     0.022483
      dxy     :     0.004102
      f0      :     0.000077  f :     0.002189
      f+1     :     0.000087
      f-1     :     0.000643
      f+2     :     0.000124
      f-2     :     0.000025
      f+3     :     0.000310
      f-3     :     0.000924
 11 Cls       :     5.720766  s :     5.720766
      pz      :     3.781325  p :    11.386792
      px      :     3.794140
      py      :     3.811326
      dz2     :     0.010564  d :     0.041703
      dxz     :     0.014654
      dyz     :     0.010865
      dx2y2   :     0.001488
      dxy     :     0.004132
      f0      :     0.000170  f :     0.002767
      f+1     :     0.000885
      f-1     :     0.000645
      f+2     :     0.000177
      f-2     :     0.000740
      f+3     :     0.000061
      f-3     :     0.000089


                      *****************************
                      * MAYER POPULATION ANALYSIS *
                      *****************************

  NA   - Mulliken gross atomic population
  ZA   - Total nuclear charge
  QA   - Mulliken gross atomic charge
  VA   - Mayer's total valence
  BVA  - Mayer's bonded valence
  FA   - Mayer's free valence

  ATOM       NA         ZA         QA         VA         BVA        FA
  0 C      6.2941     6.0000    -0.2941     3.7234     3.7234    -0.0000
  1 N      7.2932     7.0000    -0.2932     3.4004     3.4004    -0.0000
  2 H      0.6934     1.0000     0.3066     0.9750     0.9750     0.0000
  3 H      0.7244     1.0000     0.2756     0.9257     0.9257    -0.0000
  4 H      0.7382     1.0000     0.2618     0.9630     0.9630     0.0000
  5 H      0.8050     1.0000     0.1950     0.9638     0.9638     0.0000
  6 H      0.7908     1.0000     0.2092     0.9782     0.9782    -0.0000
  7 H      0.8480     1.0000     0.1520     0.9671     0.9671     0.0000
  8 Pb    21.1986    22.0000     0.8014     1.9595     1.9595    -0.0000
  9 Cl    17.5392    17.0000    -0.5392     0.7816     0.7816     0.0000
 10 Cl    17.5663    17.0000    -0.5663     0.7311     0.7311     0.0000
 11 Cl    17.5090    17.0000    -0.5090     0.8403     0.8403    -0.0000

  Mayer bond orders larger than 0.1
B(  0-C ,  1-N ) :   0.8609 B(  0-C ,  5-H ) :   0.9564 B(  0-C ,  6-H ) :   0.9362 
B(  0-C ,  7-H ) :   0.9618 B(  1-N ,  2-H ) :   0.7385 B(  1-N ,  3-H ) :   0.9061 
B(  1-N ,  4-H ) :   0.9064 B(  2-H ,  9-Cl) :   0.2396 B(  8-Pb,  9-Cl) :   0.5116 
B(  8-Pb, 10-Cl) :   0.6190 B(  8-Pb, 11-Cl) :   0.8156 

-------
TIMINGS
-------

Total SCF time: 0 days 0 hours 5 min 35 sec 

Total time                  ....     335.394 sec
Sum of individual times     ....     314.543 sec  ( 93.8%)

Fock matrix formation       ....     308.537 sec  ( 92.0%)
  Coulomb formation         ....     238.679 sec  ( 77.4% of F)
  Split-RI-J                ....      20.442 sec  (  6.6% of F)
  Chain of spheres X        ....     238.067 sec  ( 77.2% of F)
  COS-X 1 center corr.      ....       0.000 sec  (  0.0% of F)
  XC integration            ....      69.912 sec  ( 22.7% of F)
    Basis function eval.    ....      32.873 sec  ( 47.0% of XC)
    Density eval.           ....      13.660 sec  ( 19.5% of XC)
    XC-Functional eval.     ....       3.414 sec  (  4.9% of XC)
    XC-Potential eval.      ....      18.794 sec  ( 26.9% of XC)
Diagonalization             ....       0.609 sec  (  0.2%)
Density matrix formation    ....       0.043 sec  (  0.0%)
Population analysis         ....       0.069 sec  (  0.0%)
Initial guess               ....       0.116 sec  (  0.0%)
Orbital Transformation      ....       0.000 sec  (  0.0%)
Orbital Orthonormalization  ....       0.113 sec  (  0.0%)
DIIS solution               ....       0.155 sec  (  0.0%)
SOSCF solution              ....       0.081 sec  (  0.0%)
Grid generation             ....       4.933 sec  (  1.5%)

------------------------------------------------------------------------------
                              ORCA MP2 CALCULATION
------------------------------------------------------------------------------


----------------------
RI-MP2 ENERGY+GRADIENT
----------------------
Dimension of the basis                    ...  259
Memory devoted to MP2                     ... 1000 MB   
Data format for buffers                   ... DOUBLE
Compression type for matrix containers    ... UNCOMPRESSED
Overall scaling of the MP2 energy         ...   2.700e-01 Eh
Calculating two index integrals           ... done (    0.012 sec)
Cholesky decomposition of the V-matrix    ... done
Cholesky decomposition of V**-1           ... done (    0.021 sec)

-----------------
RI-TRANSFORMATION (AUX index driven)
-----------------

Dimension of the orbital-basis         ... 259
Dimension of the aux-basis             ... 493
Transformation of internal MOs         ...    0-  45
Transformation of internal/external MOs...    0-  45 to   46- 258
Number Format for Storage              ... Double (8 Byte)
Integral mode                          ... Direct

First Phase: integral generation and transformation of MO indices
  Aux angular momentum 0               ... done (    0.471 sec)
  Aux angular momentum 1               ... done (    0.349 sec)
  Aux angular momentum 2               ... done (    0.390 sec)
  Aux angular momentum 3               ... done (    0.226 sec)
  Aux angular momentum 4               ... done (    0.209 sec)
Closing buffer VIJ ( 0.00 GB; CompressionRatio= 1.95)
Closing buffer VIA ( 0.04 GB; CompressionRatio= 1.00)
  Phase 1 completed in     1.745 sec
Second Phase: sorting and transformation of aux index

IJ-Transformation
Memory available                       ... 990 MB 
Max. # MO pairs treated in a batch     ... 46    
# of internal orbitals                 ... 46
# batches for internal orbitals        ... 1
Closing buffer IJV ( 0.00 GB; CompressionRatio= 1.00)
(ij|v) transformation done in     0.088 sec

IA-Transformation
Memory available                       ... 990 MB 
Max. # MO pairs treated in a batch     ... 46    
# of internal orbitals                 ... 46
# batches for internal orbitals        ... 1
Closing buffer IAV ( 0.04 GB; CompressionRatio= 1.00)
(ia|v) transformation done in     0.353 sec

  Phase 2 completed in     0.530 sec
RI-Integral transformation completed in     2.276 sec
Opening buffers                              ... done

Starting loop over batches of integrals:

Operator 0  - window                       ... (  0- 45)x( 46-258)
Operator 0  - Memory available             ...  1000 MB
Operator 0  - Memory needed per MO         ...   1.6 MB
Operator 0  - Number of orbitals per batch ... 46
Operator 0  - Number of batches            ... 1

OPERATOR  0   PASS   0:  MOs     0 ...   45
  Reading integrals       ... ok
  Internal MO   2
  Internal MO   5
  Internal MO   8
  Internal MO  11
  Internal MO  14
  Internal MO  17
  Internal MO  20
  Internal MO  23
  Internal MO  26
  Internal MO  29
  Internal MO  32
  Internal MO  35
  Internal MO  38
  Internal MO  41
  Internal MO  44
Closing buffer GIPV ( 0.04 GB; CompressionRatio= 1.00)
Time spent in pair loops =    43.011 sec

-----------------------------------------------
 RI-MP2 CORRELATION ENERGY:     -0.581257972 Eh
-----------------------------------------------


---------------------
MP2 DENSITY FORMATION
---------------------

Completing the external part of the density      ... done
Storing the unrelaxed density                    ... done

Calculating the xc-kernel                        ... done
Calculating G(D)                                 ... done
Completing the Lagrangian                        ... done
Solving the Z-vector equations                   ... 

------------------------------------------------------------------------------
                           ORCA CP-SCF CALCULATION
------------------------------------------------------------------------------

Input orbitals are from        ... PbMACl3_mp2_md_6.orca.gbw
Input Perturbation             ... PbMACl3_mp2_md_6.orca.pin.tmp
Wavefunction output            ... PbMACl3_mp2_md_6.orca.pout.tmp
Perturbation mode              ... Real perturbation
Solver                         ... DIIS
   MaxDIIS                     ... 20
   Levelshift                  ...    3.000e-01 Eh
Max. number of iterations      ... 128
Convergence tolerance          ... 1.000e-08
Integral handling              ... Direct
COSX GridX                     ... 1
Number of perturbations        ... 1
Number of operators            ... 1
Orbital ranges used for CP-SCF:
 Operator 0:  Orbitals   0... 45  to  46...258
DFT calculation                         ... on
Exchange functional (SCF)               ... B88
Exchange functional (CP-SCF)            ... B88
   X-Alpha parameter    XAlpha (SCF)    ...  0.666667
   X-Alpha parameter    XAlpha (CP-SCF) ...  0.666667
   Becke's b parameter  XBeta (SCF)     ...  0.004200
   Becke's b parameter  XBeta (CP-SCF)  ...  0.004200
Correlation functional (SCF)            ... LYP
Correlation functional (CP-SCF)         ... LYP
 LDA part of GGA corr.  LDAOpt (SCF)    ... VWN-3
 LDA part of GGA corr.  LDAOpt (CP-SCF) ... VWN-3
Hybrid DFT                              ... on
   Exchange mixing (SCF)                ...  0.530
   Exchange mixing (CP-SCF)             ...  0.530
   GGA exch. scaling(SCF)               ...  0.470
   GGA exch. scaling (CP-SCF)           ...  0.470
   GGA corr. scaling (SCF)              ...  0.730
   GGA corr. scaling (CP-SCF)           ...  0.730
The RIJCOSX approximation is active
Variables per vector in CP-SCF ... 9798
Number of vectors sought       ... 1
Calculating the xc-kernel      ... done

Solving the CP-SCF equations by a DIIS algorithm

-----------------
CP-SCF ITERATIONS
-----------------
  Iteration   0: MaxR=  0.088896254
  Iteration   1: MaxR=  0.041666059
  Iteration   2: MaxR=  0.012258072
  Iteration   3: MaxR=  0.005384237
  Iteration   4: MaxR=  0.002833119
  Iteration   5: MaxR=  0.001217115
  Iteration   6: MaxR=  0.000510538
  Iteration   7: MaxR=  0.000155927
  Iteration   8: MaxR=  0.000064126
  Iteration   9: MaxR=  0.000021332
  Iteration  10: MaxR=  0.000010401
  Iteration  11: MaxR=  0.000004008
  Iteration  12: MaxR=  0.000001643
  Iteration  13: MaxR=  0.000000539
  Iteration  14: MaxR=  0.000000200
  Iteration  15: MaxR=  0.000000069
  Iteration  16: MaxR=  0.000000021
  Iteration  17: MaxR=  0.000000007
                              *** THE CP-SCF HAS CONVERGED *** 
done
Finalizing the relaxed density                   ... done
Transforming P to the AO basis                   ... done
Storing the relaxed density                      ... done

------------------------------------
ENERGY WEIGHTED DENSITY FINALIZATION
------------------------------------

Gathering the parts of the W-matrix              ... done
Forming the Z-density                            ... done
Transforming Z to the AO basis                   ... done
Calculating G(Z)                                 ... done
Finalizing the W-matrix                          ... done
Transforming W to the AO basis and storing       ... done
Entering the RIJONX and RIJCOSX sections
Starting the three-index derivative integrals:
Operator 0  - Memory available             ...  1000 MB
Operator 0  - Memory needed per MO         ...   1.0 MB
Operator 0  - Number of orbitals per batch ... 46
Operator 0  - Number of batches            ... 1

OPERATOR  0   PASS   0:  MOs     0 ...   45

----------------------------------
MP2 DERIVATIVE INTEGRAL GENERATION
----------------------------------


Input Correlated Electron Density   ... PbMACl3_mp2_md_6.orca.pmp2re
Input Energy Weighted Density       ... PbMACl3_mp2_md_6.orca.wmp2.tmp
Input SCF Electron Density          ... PbMACl3_mp2_md_6.orca.scfp.tmp

One-Electron Terms    ...
  ECP gradient                                           ... One-Electron Terms done

-----------------------------------------------------------
MP2 COSX Grid Generation
-----------------------------------------------------------

General Integration Accuracy     IntAcc      ...  4.340
Radial Grid Type                 RadialGrid  ... Gauss-Chebyshev
Angular Grid (max. acc.)         AngularGrid ... Lebedev-302
Angular grid pruning method      GridPruning ... 3 (G Style)
Weight generation scheme         WeightScheme... Becke
Basis function cutoff            BFCut       ...    1.0000e-11
Integration weight cutoff        WCut        ...    1.0000e-14
Grids for H and He will be reduced by one unit

# of grid points (after initial pruning)     ...  57718 (   0.0 sec)
# of grid points (after weights+screening)   ...  54154 (   0.1 sec)
nearest neighbour list constructed           ...    0.0 sec
Grid point re-assignment to atoms done       ...    0.0 sec
Grid point division into batches done        ...    0.2 sec
Reduced shell lists constructed in    1.4 sec

Total number of grid points                  ...    54154
Total number of batches                      ...      851
Average number of points per batch           ...       63
Average number of grid points per atom       ...     4513
Average number of shells per batch           ...    57.19 (56.62%)
Average number of basis functions per batch  ...   151.88 (58.64%)
Average number of large shells per batch     ...    43.42 (75.93%)
Average number of large basis fcns per batch ...   112.76 (74.24%)
Maximum spatial batch extension              ...  31.21, 31.68, 34.44 au
Average spatial batch extension              ...   2.99,  2.94,  3.19 au

Overlap Fitting                  UseSFitting ... on
Two electron COSX terms .... 
Integration Timings:
Total Time                  =    82.6 sec
Basis fcn evaluation        =     0.6 sec
Density evaluation          =     0.9 sec
Integral evaluation         =    79.3 sec
K(P) evaluation             =     0.7 sec
                          .... COSX two electron terms done
COSX two-electron contribution to the gradient
     0:     0.020008     0.037227    -0.044880
     1:    -0.043574    -0.056915     0.108775
     2:    -0.036282    -0.117138    -0.087023
     3:     0.212073     0.038833    -0.004252
     4:    -0.072220     0.169176    -0.130346
     5:     0.018918    -0.152040     0.070063
     6:    -0.165866    -0.023117    -0.008514
     7:     0.065700     0.121178     0.097378
     8:     0.020712     0.003926    -0.049624
     9:     0.042963    -0.035783    -0.007951
    10:    -0.015308     0.056612    -0.007478
    11:    -0.047591    -0.040912     0.064458
Exchange-correlation gradient    ... done
Dispersion correction            ... 
Entering the calculation of the dispersion correction...

Checking the input atom types...

Done
done

                *********************************************
                * UNRELAXED MP2 DENSITY POPULATION ANALYSIS *
                *********************************************

------------------------------------------------------------------------------
                           ORCA POPULATION ANALYSIS
------------------------------------------------------------------------------
Input electron density              ... PbMACl3_mp2_md_6.orca.pmp2ur
BaseName (.gbw .S,...)              ... PbMACl3_mp2_md_6.orca

                    ********************************
                    * MULLIKEN POPULATION ANALYSIS *
                    ********************************

-----------------------
MULLIKEN ATOMIC CHARGES
-----------------------
   0 C :   -0.298937
   1 N :   -0.292172
   2 H :    0.304439
   3 H :    0.275757
   4 H :    0.262023
   5 H :    0.195719
   6 H :    0.209508
   7 H :    0.153156
   8 Pb:    0.785604
   9 Cl:   -0.532805
  10 Cl:   -0.559932
  11 Cl:   -0.502360
Sum of atomic charges:   -0.0000000

--------------------------------
MULLIKEN REDUCED ORBITAL CHARGES
--------------------------------
  0 C s       :     3.300563  s :     3.300563
      pz      :     0.745360  p :     2.919272
      px      :     1.063784
      py      :     1.110128
      dz2     :     0.017278  d :     0.072228
      dxz     :     0.014496
      dyz     :     0.018056
      dx2y2   :     0.015378
      dxy     :     0.007020
      f0      :     0.001432  f :     0.006873
      f+1     :     0.001525
      f-1     :     0.001007
      f+2     :     0.001031
      f-2     :     0.000712
      f+3     :     0.000840
      f-3     :     0.000327
  1 N s       :     3.412482  s :     3.412482
      pz      :     1.262082  p :     3.821252
      px      :     1.239063
      py      :     1.320107
      dz2     :     0.011771  d :     0.055184
      dxz     :     0.008896
      dyz     :     0.018069
      dx2y2   :     0.012432
      dxy     :     0.004015
      f0      :     0.000621  f :     0.003255
      f+1     :     0.000598
      f-1     :     0.000384
      f+2     :     0.000552
      f-2     :     0.000357
      f+3     :     0.000523
      f-3     :     0.000221
  2 H s       :     0.652386  s :     0.652386
      pz      :     0.009760  p :     0.043175
      px      :     0.005392
      py      :     0.028023
  3 H s       :     0.688188  s :     0.688188
      pz      :     0.006810  p :     0.036055
      px      :     0.021407
      py      :     0.007839
  4 H s       :     0.696150  s :     0.696150
      pz      :     0.013874  p :     0.041827
      px      :     0.010901
      py      :     0.017053
  5 H s       :     0.781460  s :     0.781460
      pz      :     0.004823  p :     0.022820
      px      :     0.004660
      py      :     0.013338
  6 H s       :     0.765495  s :     0.765495
      pz      :     0.003915  p :     0.024997
      px      :     0.016880
      py      :     0.004202
  7 H s       :     0.824387  s :     0.824387
      pz      :     0.007611  p :     0.022457
      px      :     0.005131
      py      :     0.009715
  8 Pbs       :     3.922208  s :     3.922208
      pz      :     2.415222  p :     7.049727
      px      :     2.307445
      py      :     2.327060
      dz2     :     2.029559  d :    10.133524
      dxz     :     2.022531
      dyz     :     2.026706
      dx2y2   :     2.030326
      dxy     :     2.024402
      f0      :     0.014343  f :     0.108937
      f+1     :     0.014936
      f-1     :     0.014167
      f+2     :     0.015785
      f-2     :     0.011813
      f+3     :     0.018118
      f-3     :     0.019774
  9 Cls       :     5.951057  s :     5.951057
      pz      :     3.923168  p :    11.515504
      px      :     3.774093
      py      :     3.818243
      dz2     :     0.011775  d :     0.062571
      dxz     :     0.010421
      dyz     :     0.009322
      dx2y2   :     0.018563
      dxy     :     0.012489
      f0      :     0.000483  f :     0.003673
      f+1     :     0.000561
      f-1     :     0.000515
      f+2     :     0.000455
      f-2     :     0.000421
      f+3     :     0.000581
      f-3     :     0.000658
 10 Cls       :     5.949344  s :     5.949344
      pz      :     3.910461  p :    11.547999
      px      :     3.893289
      py      :     3.744249
      dz2     :     0.011087  d :     0.058983
      dxz     :     0.009034
      dyz     :     0.011122
      dx2y2   :     0.016453
      dxy     :     0.011287
      f0      :     0.000456  f :     0.003606
      f+1     :     0.000427
      f-1     :     0.000578
      f+2     :     0.000500
      f-2     :     0.000413
      f+3     :     0.000572
      f-3     :     0.000660
 11 Cls       :     5.942968  s :     5.942968
      pz      :     3.811600  p :    11.495601
      px      :     3.831713
      py      :     3.852288
      dz2     :     0.012973  d :     0.059886
      dxz     :     0.014084
      dyz     :     0.012928
      dx2y2   :     0.009374
      dxy     :     0.010527
      f0      :     0.000550  f :     0.003906
      f+1     :     0.000664
      f-1     :     0.000604
      f+2     :     0.000542
      f-2     :     0.000672
      f+3     :     0.000433
      f-3     :     0.000440


                     *******************************
                     * LOEWDIN POPULATION ANALYSIS *
                     *******************************

----------------------
LOEWDIN ATOMIC CHARGES
----------------------
   0 C :   -0.285834
   1 N :    0.112847
   2 H :    0.183123
   3 H :    0.186667
   4 H :    0.139044
   5 H :    0.132830
   6 H :    0.133958
   7 H :    0.123888
   8 Pb:   -0.165699
   9 Cl:   -0.191036
  10 Cl:   -0.222471
  11 Cl:   -0.147317

-------------------------------
LOEWDIN REDUCED ORBITAL CHARGES
-------------------------------
  0 C s       :     2.877547  s :     2.877547
      pz      :     0.884124  p :     3.087902
      px      :     1.087300
      py      :     1.116478
      dz2     :     0.075183  d :     0.285317
      dxz     :     0.060530
      dyz     :     0.075969
      dx2y2   :     0.055645
      dxy     :     0.017990
      f0      :     0.008444  f :     0.035068
      f+1     :     0.008898
      f-1     :     0.004470
      f+2     :     0.003326
      f-2     :     0.005721
      f+3     :     0.002707
      f-3     :     0.001502
  1 N s       :     2.982952  s :     2.982952
      pz      :     1.245745  p :     3.728649
      px      :     1.217968
      py      :     1.264936
      dz2     :     0.035635  d :     0.164647
      dxz     :     0.028200
      dyz     :     0.051484
      dx2y2   :     0.038115
      dxy     :     0.011214
      f0      :     0.002233  f :     0.010904
      f+1     :     0.001868
      f-1     :     0.001187
      f+2     :     0.001459
      f-2     :     0.001927
      f+3     :     0.001470
      f-3     :     0.000761
  2 H s       :     0.687073  s :     0.687073
      pz      :     0.027846  p :     0.129803
      px      :     0.013950
      py      :     0.088008
  3 H s       :     0.705709  s :     0.705709
      pz      :     0.021263  p :     0.107624
      px      :     0.062578
      py      :     0.023783
  4 H s       :     0.728032  s :     0.728032
      pz      :     0.041868  p :     0.132924
      px      :     0.034951
      py      :     0.056105
  5 H s       :     0.800801  s :     0.800801
      pz      :     0.013693  p :     0.066369
      px      :     0.014810
      py      :     0.037866
  6 H s       :     0.796408  s :     0.796408
      pz      :     0.010200  p :     0.069635
      px      :     0.047325
      py      :     0.012110
  7 H s       :     0.812898  s :     0.812898
      pz      :     0.019443  p :     0.063214
      px      :     0.015985
      py      :     0.027787
  8 Pbs       :     3.680103  s :     3.680103
      pz      :     2.561072  p :     7.544956
      px      :     2.477664
      py      :     2.506220
      dz2     :     2.132764  d :    10.675756
      dxz     :     2.115874
      dyz     :     2.113727
      dx2y2   :     2.184753
      dxy     :     2.128637
      f0      :     0.026874  f :     0.264884
      f+1     :     0.040092
      f-1     :     0.037071
      f+2     :     0.030792
      f-2     :     0.028293
      f+3     :     0.044915
      f-3     :     0.056847
  9 Cls       :     5.736341  s :     5.736341
      pz      :     3.871144  p :    11.364042
      px      :     3.741111
      py      :     3.751786
      dz2     :     0.017137  d :     0.085361
      dxz     :     0.010792
      dyz     :     0.009187
      dx2y2   :     0.032431
      dxy     :     0.015814
      f0      :     0.000489  f :     0.005292
      f+1     :     0.000971
      f-1     :     0.000632
      f+2     :     0.000498
      f-2     :     0.000431
      f+3     :     0.001019
      f-3     :     0.001251
 10 Cls       :     5.741053  s :     5.741053
      pz      :     3.853988  p :    11.397300
      px      :     3.829732
      py      :     3.713580
      dz2     :     0.016361  d :     0.079117
      dxz     :     0.009234
      dyz     :     0.011103
      dx2y2   :     0.030394
      dxy     :     0.012025
      f0      :     0.000468  f :     0.005001
      f+1     :     0.000469
      f-1     :     0.001048
      f+2     :     0.000527
      f-2     :     0.000415
      f+3     :     0.000730
      f-3     :     0.001344
 11 Cls       :     5.716419  s :     5.716419
      pz      :     3.767458  p :    11.345096
      px      :     3.780229
      py      :     3.797409
      dz2     :     0.018281  d :     0.080236
      dxz     :     0.022398
      dyz     :     0.018613
      dx2y2   :     0.009142
      dxy     :     0.011802
      f0      :     0.000579  f :     0.005566
      f+1     :     0.001299
      f-1     :     0.001054
      f+2     :     0.000577
      f-2     :     0.001148
      f+3     :     0.000441
      f-3     :     0.000469


                      *****************************
                      * MAYER POPULATION ANALYSIS *
                      *****************************

  NA   - Mulliken gross atomic population
  ZA   - Total nuclear charge
  QA   - Mulliken gross atomic charge
  VA   - Mayer's total valence
  BVA  - Mayer's bonded valence
  FA   - Mayer's free valence

  ATOM       NA         ZA         QA         VA         BVA        FA
  0 C      6.2989     6.0000    -0.2989     3.7735     3.6534     0.1201
  1 N      7.2922     7.0000    -0.2922     3.4737     3.3332     0.1405
  2 H      0.6956     1.0000     0.3044     0.9780     0.9550     0.0230
  3 H      0.7242     1.0000     0.2758     0.9276     0.9098     0.0178
  4 H      0.7380     1.0000     0.2620     0.9650     0.9484     0.0166
  5 H      0.8043     1.0000     0.1957     0.9663     0.9475     0.0188
  6 H      0.7905     1.0000     0.2095     0.9809     0.9609     0.0200
  7 H      0.8468     1.0000     0.1532     0.9698     0.9509     0.0189
  8 Pb    21.2144    22.0000     0.7856     2.2726     1.9005     0.3721
  9 Cl    17.5328    17.0000    -0.5328     1.0201     0.7578     0.2623
 10 Cl    17.5599    17.0000    -0.5599     0.9712     0.7086     0.2626
 11 Cl    17.5024    17.0000    -0.5024     1.0747     0.8140     0.2607

  Mayer bond orders larger than 0.1
B(  0-C ,  1-N ) :   0.8390 B(  0-C ,  5-H ) :   0.9409 B(  0-C ,  6-H ) :   0.9202 
B(  0-C ,  7-H ) :   0.9463 B(  1-N ,  2-H ) :   0.7236 B(  1-N ,  3-H ) :   0.8911 
B(  1-N ,  4-H ) :   0.8933 B(  2-H ,  9-Cl) :   0.2345 B(  8-Pb,  9-Cl) :   0.4960 
B(  8-Pb, 10-Cl) :   0.6001 B(  8-Pb, 11-Cl) :   0.7909 


                *******************************************
                * RELAXED MP2 DENSITY POPULATION ANALYSIS *
                *******************************************

------------------------------------------------------------------------------
                           ORCA POPULATION ANALYSIS
------------------------------------------------------------------------------
Input electron density              ... PbMACl3_mp2_md_6.orca.pmp2re
BaseName (.gbw .S,...)              ... PbMACl3_mp2_md_6.orca

                    ********************************
                    * MULLIKEN POPULATION ANALYSIS *
                    ********************************

-----------------------
MULLIKEN ATOMIC CHARGES
-----------------------
   0 C :   -0.312659
   1 N :   -0.289546
   2 H :    0.294754
   3 H :    0.275136
   4 H :    0.260537
   5 H :    0.197306
   6 H :    0.209644
   7 H :    0.155614
   8 Pb:    0.732215
   9 Cl:   -0.507893
  10 Cl:   -0.536362
  11 Cl:   -0.478746
Sum of atomic charges:   -0.0000000

--------------------------------
MULLIKEN REDUCED ORBITAL CHARGES
--------------------------------
  0 C s       :     3.302608  s :     3.302608
      pz      :     0.753086  p :     2.935594
      px      :     1.068720
      py      :     1.113788
      dz2     :     0.016223  d :     0.067752
      dxz     :     0.013877
      dyz     :     0.016927
      dx2y2   :     0.013926
      dxy     :     0.006799
      f0      :     0.001398  f :     0.006705
      f+1     :     0.001470
      f-1     :     0.000994
      f+2     :     0.001014
      f-2     :     0.000693
      f+3     :     0.000815
      f-3     :     0.000322
  1 N s       :     3.413534  s :     3.413534
      pz      :     1.257960  p :     3.819047
      px      :     1.239611
      py      :     1.321476
      dz2     :     0.011484  d :     0.053762
      dxz     :     0.008705
      dyz     :     0.017821
      dx2y2   :     0.011894
      dxy     :     0.003857
      f0      :     0.000613  f :     0.003202
      f+1     :     0.000581
      f-1     :     0.000384
      f+2     :     0.000542
      f-2     :     0.000354
      f+3     :     0.000509
      f-3     :     0.000218
  2 H s       :     0.662585  s :     0.662585
      pz      :     0.009651  p :     0.042660
      px      :     0.005483
      py      :     0.027526
  3 H s       :     0.689244  s :     0.689244
      pz      :     0.006875  p :     0.035620
      px      :     0.020821
      py      :     0.007925
  4 H s       :     0.698095  s :     0.698095
      pz      :     0.013649  p :     0.041368
      px      :     0.010892
      py      :     0.016828
  5 H s       :     0.780233  s :     0.780233
      pz      :     0.004800  p :     0.022461
      px      :     0.004742
      py      :     0.012919
  6 H s       :     0.765674  s :     0.765674
      pz      :     0.004024  p :     0.024682
      px      :     0.016374
      py      :     0.004284
  7 H s       :     0.822295  s :     0.822295
      pz      :     0.007483  p :     0.022092
      px      :     0.005149
      py      :     0.009459
  8 Pbs       :     3.935368  s :     3.935368
      pz      :     2.416614  p :     7.092499
      px      :     2.328831
      py      :     2.347054
      dz2     :     2.028251  d :    10.132957
      dxz     :     2.022895
      dyz     :     2.027426
      dx2y2   :     2.028840
      dxy     :     2.025543
      f0      :     0.014201  f :     0.106961
      f+1     :     0.014548
      f-1     :     0.013807
      f+2     :     0.015666
      f-2     :     0.011598
      f+3     :     0.017833
      f-3     :     0.019309
  9 Cls       :     5.951693  s :     5.951693
      pz      :     3.917087  p :    11.489696
      px      :     3.767161
      py      :     3.805447
      dz2     :     0.011797  d :     0.062812
      dxz     :     0.010449
      dyz     :     0.009324
      dx2y2   :     0.018802
      dxy     :     0.012441
      f0      :     0.000485  f :     0.003693
      f+1     :     0.000560
      f-1     :     0.000520
      f+2     :     0.000456
      f-2     :     0.000422
      f+3     :     0.000584
      f-3     :     0.000666
 10 Cls       :     5.950062  s :     5.950062
      pz      :     3.902628  p :    11.523642
      px      :     3.884694
      py      :     3.736320
      dz2     :     0.011100  d :     0.059041
      dxz     :     0.009078
      dyz     :     0.011114
      dx2y2   :     0.016508
      dxy     :     0.011241
      f0      :     0.000458  f :     0.003616
      f+1     :     0.000429
      f-1     :     0.000577
      f+2     :     0.000503
      f-2     :     0.000414
      f+3     :     0.000576
      f-3     :     0.000660
 11 Cls       :     5.943649  s :     5.943649
      pz      :     3.803207  p :    11.471476
      px      :     3.823592
      py      :     3.844676
      dz2     :     0.013100  d :     0.059709
      dxz     :     0.013986
      dyz     :     0.012845
      dx2y2   :     0.009384
      dxy     :     0.010394
      f0      :     0.000555  f :     0.003912
      f+1     :     0.000663
      f-1     :     0.000604
      f+2     :     0.000547
      f-2     :     0.000669
      f+3     :     0.000434
      f-3     :     0.000441


                     *******************************
                     * LOEWDIN POPULATION ANALYSIS *
                     *******************************

----------------------
LOEWDIN ATOMIC CHARGES
----------------------
   0 C :   -0.295900
   1 N :    0.109538
   2 H :    0.180399
   3 H :    0.187123
   4 H :    0.138793
   5 H :    0.134430
   6 H :    0.135381
   7 H :    0.125596
   8 Pb:   -0.194285
   9 Cl:   -0.177697
  10 Cl:   -0.209404
  11 Cl:   -0.133973

-------------------------------
LOEWDIN REDUCED ORBITAL CHARGES
-------------------------------
  0 C s       :     2.879464  s :     2.879464
      pz      :     0.889432  p :     3.101091
      px      :     1.091725
      py      :     1.119934
      dz2     :     0.073935  d :     0.280534
      dxz     :     0.059642
      dyz     :     0.074902
      dx2y2   :     0.054239
      dxy     :     0.017816
      f0      :     0.008395  f :     0.034812
      f+1     :     0.008804
      f-1     :     0.004423
      f+2     :     0.003296
      f-2     :     0.005704
      f+3     :     0.002693
      f-3     :     0.001498
  1 N s       :     2.984327  s :     2.984327
      pz      :     1.244409  p :     3.730704
      px      :     1.219287
      py      :     1.267008
      dz2     :     0.035581  d :     0.164483
      dxz     :     0.028274
      dyz     :     0.051579
      dx2y2   :     0.037915
      dxy     :     0.011134
      f0      :     0.002247  f :     0.010949
      f+1     :     0.001882
      f-1     :     0.001187
      f+2     :     0.001462
      f-2     :     0.001936
      f+3     :     0.001467
      f-3     :     0.000767
  2 H s       :     0.690073  s :     0.690073
      pz      :     0.027826  p :     0.129528
      px      :     0.014065
      py      :     0.087637
  3 H s       :     0.705507  s :     0.705507
      pz      :     0.021343  p :     0.107370
      px      :     0.062096
      py      :     0.023931
  4 H s       :     0.728496  s :     0.728496
      pz      :     0.041691  p :     0.132711
      px      :     0.035013
      py      :     0.056008
  5 H s       :     0.799152  s :     0.799152
      pz      :     0.013784  p :     0.066418
      px      :     0.014985
      py      :     0.037649
  6 H s       :     0.794834  s :     0.794834
      pz      :     0.010423  p :     0.069786
      px      :     0.047116
      py      :     0.012246
  7 H s       :     0.811099  s :     0.811099
      pz      :     0.019463  p :     0.063305
      px      :     0.016148
      py      :     0.027694
  8 Pbs       :     3.692657  s :     3.692657
      pz      :     2.558097  p :     7.569636
      px      :     2.491939
      py      :     2.519600
      dz2     :     2.130383  d :    10.669710
      dxz     :     2.115250
      dyz     :     2.113456
      dx2y2   :     2.182005
      dxy     :     2.128616
      f0      :     0.026558  f :     0.262282
      f+1     :     0.039692
      f-1     :     0.036686
      f+2     :     0.030491
      f-2     :     0.027954
      f+3     :     0.044519
      f-3     :     0.056381
  9 Cls       :     5.739575  s :     5.739575
      pz      :     3.866415  p :    11.346214
      px      :     3.737060
      py      :     3.742739
      dz2     :     0.017375  d :     0.086534
      dxz     :     0.010837
      dyz     :     0.009202
      dx2y2   :     0.033070
      dxy     :     0.016049
      f0      :     0.000492  f :     0.005373
      f+1     :     0.000988
      f-1     :     0.000640
      f+2     :     0.000501
      f-2     :     0.000432
      f+3     :     0.001038
      f-3     :     0.001282
 10 Cls       :     5.744145  s :     5.744145
      pz      :     3.847938  p :    11.380077
      px      :     3.823355
      py      :     3.708783
      dz2     :     0.016575  d :     0.080105
      dxz     :     0.009280
      dyz     :     0.011147
      dx2y2   :     0.030936
      dxy     :     0.012167
      f0      :     0.000471  f :     0.005078
      f+1     :     0.000472
      f-1     :     0.001067
      f+2     :     0.000532
      f-2     :     0.000416
      f+3     :     0.000747
      f-3     :     0.001372
 11 Cls       :     5.719661  s :     5.719661
      pz      :     3.761438  p :    11.327244
      px      :     3.774131
      py      :     3.791674
      dz2     :     0.018520  d :     0.081395
      dxz     :     0.022844
      dyz     :     0.018954
      dx2y2   :     0.009214
      dxy     :     0.011863
      f0      :     0.000585  f :     0.005674
      f+1     :     0.001326
      f-1     :     0.001076
      f+2     :     0.000589
      f-2     :     0.001180
      f+3     :     0.000445
      f-3     :     0.000473


                      *****************************
                      * MAYER POPULATION ANALYSIS *
                      *****************************

  NA   - Mulliken gross atomic population
  ZA   - Total nuclear charge
  QA   - Mulliken gross atomic charge
  VA   - Mayer's total valence
  BVA  - Mayer's bonded valence
  FA   - Mayer's free valence

  ATOM       NA         ZA         QA         VA         BVA        FA
  0 C      6.3127     6.0000    -0.3127     3.7747     3.6549     0.1198
  1 N      7.2895     7.0000    -0.2895     3.4785     3.3383     0.1402
  2 H      0.7052     1.0000     0.2948     0.9861     0.9632     0.0229
  3 H      0.7249     1.0000     0.2751     0.9277     0.9100     0.0178
  4 H      0.7395     1.0000     0.2605     0.9682     0.9517     0.0165
  5 H      0.8027     1.0000     0.1973     0.9673     0.9486     0.0187
  6 H      0.7904     1.0000     0.2096     0.9854     0.9656     0.0199
  7 H      0.8444     1.0000     0.1556     0.9688     0.9500     0.0188
  8 Pb    21.2678    22.0000     0.7322     2.3560     1.9898     0.3662
  9 Cl    17.5079    17.0000    -0.5079     1.0663     0.8054     0.2609
 10 Cl    17.5364    17.0000    -0.5364     1.0151     0.7540     0.2612
 11 Cl    17.4787    17.0000    -0.4787     1.1170     0.8580     0.2591

  Mayer bond orders larger than 0.1
B(  0-C ,  1-N ) :   0.8488 B(  0-C ,  5-H ) :   0.9378 B(  0-C ,  6-H ) :   0.9161 
B(  0-C ,  7-H ) :   0.9435 B(  1-N ,  2-H ) :   0.7176 B(  1-N ,  3-H ) :   0.8894 
B(  1-N ,  4-H ) :   0.8911 B(  2-H ,  9-Cl) :   0.2479 B(  8-Pb,  9-Cl) :   0.5173 
B(  8-Pb, 10-Cl) :   0.6272 B(  8-Pb, 11-Cl) :   0.8281 


-------
TIMINGS
-------

Total time                :  464.277 sec
Integral trafo            :    2.286 sec (  0.5%)
I/O of integrals          :    0.117 sec (  0.0%)
K(i,j) Operators          :    5.745 sec (  1.2%)
T(i,j) pair energies      :    1.091 sec (  0.2%)
V-calculation             :    0.012 sec (  0.0%)
V**(-1/2)                 :    0.021 sec (  0.0%)
Gamma(ia|P)               :    5.219 sec (  1.1%)
Gamma-Trafo               :    0.735 sec (  0.2%)
D(virtual)                :    2.360 sec (  0.5%)
D(internal)               :    3.824 sec (  0.8%)
W(virtual)                :    4.713 sec (  1.0%)
W(internal)               :   13.504 sec (  2.9%)
L(virtual)                :    5.245 sec (  1.1%)
L(internal)               :    0.223 sec (  0.0%)
G(D)                      :   13.298 sec (  2.9%)
G(Z)                      :   13.428 sec (  2.9%)
Z-Vector Solution         :  290.867 sec ( 62.6%)
Z-Vector Solution         :  290.867 sec ( 62.6%)
3-Index Derivative 
+ Separable RIJ part      :    3.954 sec (  0.9%)
2-Index Derivative 
+ Separable RIJ part      :    0.025 sec (  0.0%)
Separable Gradient (COSX) :   96.112 sec ( 20.7%)


---------------------------------------
MP2 TOTAL ENERGY:    -1669.568348993 Eh
---------------------------------------

The final MP2 gradient
  0:   0.00579500   0.00192213  -0.00032430
  1:  -0.01635560   0.10072835  -0.03032603
  2:  -0.01115048  -0.02074037  -0.02131664
  3:  -0.01237093   0.00473723  -0.00842576
  4:   0.04843758  -0.07160575   0.04302578
  5:  -0.01088565  -0.00941877   0.00755952
  6:  -0.02393154  -0.01666019  -0.00135486
  7:   0.01295715   0.00927155   0.00248769
  8:   0.03126391   0.02355892   0.04441643
  9:  -0.03018274  -0.00008742  -0.00519114
 10:  -0.00146012  -0.02679892  -0.00334669
 11:   0.00737883   0.00615259  -0.02664167

-----------------------------------
NORM OF THE MP2 GRADIENT:  0.171185
-----------------------------------

Entering the calculation of the dispersion correction...

Checking the input atom types...

Done


-------------------------------------------------------------------------------
                          DFT DISPERSION CORRECTION                            
                                                                               
                                DFTD3 V2.1  Rev 6                               
                          USING Becke-Johnson damping                          
-------------------------------------------------------------------------------
The B2PLYP functional is recognized
Active option DFTDOPT                   ...         4   

molecular C6(AA) [au] = 4867.514215 


            DFT-D V3
 parameters
 s6 scaling factor         :     0.6400 
 a1 scaling factor         :     0.3065 
 s8 scaling factor         :     0.9147 
 a2 scaling factor         :     5.0570 
 ad hoc parameters k1-k3   :    16.0000     1.3333    -4.0000 

 Edisp/kcal,au: -8.889991828525  -0.014167102247 
 E6   /kcal   :  -4.039363775 
 E8   /kcal   :  -4.850628054 
 % E8         :  54.562795414 

-------------------------   ----------------
Dispersion correction           -0.014167102
-------------------------   ----------------


-------------------------   --------------------
FINAL SINGLE POINT ENERGY     -1669.582516095100
-------------------------   --------------------


                            ***************************************
                            *     ORCA property calculations      *
                            ***************************************


  WARNING: The energy has been calculated at the MP2 level but the densities
           used in the property calculations are still SCF densities
           MP2 response densities have not been calculated 
           use %mp2 Density relaxed end
           or  %mp2 Density unrelaxed end

                                    ---------------------
                                    Active property flags
                                    ---------------------
   (+) Dipole Moment


------------------------------------------------------------------------------
                       ORCA ELECTRIC PROPERTIES CALCULATION
------------------------------------------------------------------------------

Dipole Moment Calculation                       ... on
Quadrupole Moment Calculation                   ... off
Polarizability Calculation                      ... off
GBWName                                         ... PbMACl3_mp2_md_6.orca.gbw
Electron density file                           ... PbMACl3_mp2_md_6.orca.scfp.tmp

-------------
DIPOLE MOMENT
-------------
                                X             Y             Z
Electronic contribution:    -58.19530     -51.81346     -52.20380
Nuclear contribution   :     61.11145      53.96154      52.27809
                        -----------------------------------------
Total Dipole Moment    :      2.91615       2.14808       0.07430
                        -----------------------------------------
Magnitude (a.u.)       :      3.62267
Magnitude (Debye)      :      9.20809


                         *** MP2 UNRELAXED DENSITY ***

------------------------------------------------------------------------------
                       ORCA ELECTRIC PROPERTIES CALCULATION
------------------------------------------------------------------------------

Dipole Moment Calculation                       ... on
Quadrupole Moment Calculation                   ... off
Polarizability Calculation                      ... off
GBWName                                         ... PbMACl3_mp2_md_6.orca.gbw
Electron density file                           ... PbMACl3_mp2_md_6.orca.pmp2ur

-------------
DIPOLE MOMENT
-------------
                                X             Y             Z
Electronic contribution:    -58.20156     -51.81757     -52.19823
Nuclear contribution   :     61.11145      53.96154      52.27809
                        -----------------------------------------
Total Dipole Moment    :      2.90989       2.14397       0.07986
                        -----------------------------------------
Magnitude (a.u.)       :      3.61531
Magnitude (Debye)      :      9.18938


                           *** MP2 RELAXED DENSITY ***

------------------------------------------------------------------------------
                       ORCA ELECTRIC PROPERTIES CALCULATION
------------------------------------------------------------------------------

Dipole Moment Calculation                       ... on
Quadrupole Moment Calculation                   ... off
Polarizability Calculation                      ... off
GBWName                                         ... PbMACl3_mp2_md_6.orca.gbw
Electron density file                           ... PbMACl3_mp2_md_6.orca.pmp2re

-------------
DIPOLE MOMENT
-------------
                                X             Y             Z
Electronic contribution:    -58.24963     -51.86242     -52.22434
Nuclear contribution   :     61.11145      53.96154      52.27809
                        -----------------------------------------
Total Dipole Moment    :      2.86182       2.09913       0.05375
                        -----------------------------------------
Magnitude (a.u.)       :      3.54954
Magnitude (Debye)      :      9.02222


Timings for individual modules:

Sum of individual times         ...      800.582 sec (=  13.343 min)
GTO integral calculation        ...        0.586 sec (=   0.010 min)   0.1 %
SCF iterations                  ...      335.556 sec (=   5.593 min)  41.9 %
MP2 module                      ...      464.440 sec (=   7.741 min)  58.0 %
                             ****ORCA TERMINATED NORMALLY****
TOTAL RUN TIME: 0 days 0 hours 13 minutes 21 seconds 74 msec
