
                                 *****************
                                 * O   R   C   A *
                                 *****************

           --- An Ab Initio, DFT and Semiempirical electronic structure package ---

                  #######################################################
                  #                        -***-                        #
                  #  Department of molecular theory and spectroscopy    #
                  #              Directorship: Frank Neese              #
                  # Max Planck Institute for Chemical Energy Conversion #
                  #                  D-45470 Muelheim/Ruhr              #
                  #                       Germany                       #
                  #                                                     #
                  #                  All rights reserved                #
                  #                        -***-                        #
                  #######################################################


                         Program Version 3.0.3 - RELEASE   -


 With contributions from (in alphabetic order):
   Ute Becker             : Parallelization
   Dmytro Bykov           : SCF Hessian
   Dmitry Ganyushin       : Spin-Orbit,Spin-Spin,Magnetic field MRCI
   Andreas Hansen         : Spin unrestricted coupled pair/coupled cluster methods
   Dimitrios Liakos       : Extrapolation schemes; parallel MDCI
   Robert Izsak           : Overlap fitted RIJCOSX, COSX-SCS-MP3
   Christian Kollmar      : KDIIS, OOCD, Brueckner-CCSD(T), CCSD density
   Simone Kossmann        : Meta GGA functionals, TD-DFT gradient, OOMP2, MP2 Hessian
   Taras Petrenko         : DFT Hessian,TD-DFT gradient, ASA and ECA modules, normal mode analysis, Resonance Raman, ABS, FL, XAS/XES, NRVS
   Christoph Reimann      : Effective Core Potentials
   Michael Roemelt        : Restricted open shell CIS
   Christoph Riplinger    : Improved optimizer, TS searches, QM/MM, DLPNO-CCSD
   Barbara Sandhoefer     : DKH picture change effects
   Igor Schapiro          : Molecular dynamics
   Kantharuban Sivalingam : CASSCF convergence, NEVPT2
   Boris Wezisla          : Elementary symmetry handling
   Frank Wennmohs         : Technical directorship


 We gratefully acknowledge several colleagues who have allowed us to
 interface, adapt or use parts of their codes:
   Stefan Grimme, W. Hujo, H. Kruse, T. Risthaus : VdW corrections, initial TS optimization,
                                                   DFT functionals, gCP
   Ed Valeev                                     : LibInt (2-el integral package), F12 methods
   Garnet Chan, S. Sharma, R. Olivares           : DMRG
   Ulf Ekstrom                                   : XCFun DFT Library
   Mihaly Kallay                                 : mrcc  (arbitrary order and MRCC methods)
   Andreas Klamt, Michael Diedenhofen            : otool_cosmo (COSMO solvation model)
   Frank Weinhold                                : gennbo (NPA and NBO analysis)
   Christopher J. Cramer and Donald G. Truhlar   : smd solvation model


 Your calculation uses the libint2 library for the computation of 2-el integrals
 For citations please refer to: http://libint.valeyev.net

 This ORCA versions uses:
   CBLAS   interface :  Fast vector & matrix operations
   LAPACKE interface :  Fast linear algebra routines
   SCALAPACK package :  Parallel linear algebra routines


Your calculation utilizes the basis: Ahlrichs-TZV
Cite in your paper:
H - Kr: A. Schaefer, H. Horn and R. Ahlrichs, J. Chem. Phys. 97, 2571 (1992).

The def2-TZV basis will be loaded
Cite in your paper:
 	F. Weigend, R. Ahlrichs, Phys. Chem. Chem. Phys. 2005, 7, 3297.

Your calculation utilizes the atom-pairwise dispersion correction
with the Becke-Johnson damping scheme (D3BJ)
Cite in your paper:
S.Grimme, S.Ehrlich, L.Goerigk, J Comput Chem, (2011), 32, 1456–1465 
S.Grimme, J.Antony, S.Ehrlich and H.Krieg, J.Chem.Phys., 132, (2010), 154104 
   

================================================================================
                                        WARNINGS
                       Please study these warnings very carefully!
================================================================================

WARNING: The RI method has been chosen with no auxiliary basis (AUX or GTOAUX in BASIS block)
        Standard TZV/J expansion basis used (GTOAUX=TZV_J)

Now building the actual basis set
cite the ECPs for Pb [SD(60,MDF)] as follows:
  B. Metz, H. Stoll, M. Dolg, J. Chem. Phys. 113, 2563 (2000).

ECP parameters for Pb [SD(60,MDF)] have been obtained from:
  pseudopotential library of the Stuttgart/Cologne group
  http://www.theochem.uni-stuttgart.de/pseudopotentials/

cite the ECP basis sets for Pb [DEF2-TZVP] as follows:
  F. Weigend, R. Ahlrichs; Phys. Chem. Chem. Phys. 7, 3297(2005).

ECP basis sets for Pb [DEF2-TZVP] have been obtained from:
  Turbomole basis set library
  ftp://ftp.chemie.uni-karlsruhe.de/pub/basen/



INFO   : the flag for use of LIBINT has been found!

================================================================================
                                       INPUT FILE
================================================================================
NAME = PbMACl3_mp2_7.orca
|  1> ! RIJCOSX RI-B2PLYP D3BJ def2-TZVP ECP{def2-TZVP} TIGHTSCF Grid5 FinalGrid6 SlowConv MORead
|  2> %method
|  3>  RunTyp Gradient
|  4>  end
|  5> %maxcore 1000
|  6> %moinp "previous.gbw"
|  7> *xyz 0 1
|  8> C 2.905719 3.576013 2.873338
|  9> N 2.134625 2.614408 2.046990
| 10> H 3.548796 3.021424 3.560517
| 11> H 2.209179 4.197444 3.440826
| 12> H 3.515705 4.204875 2.220874
| 13> H 1.516852 1.975028 2.601630
| 14> H 2.717740 1.973704 1.464858
| 15> H 1.486857 3.059076 1.361735
| 16> Pb 0.505280 0.131547 0.209487
| 17> Cl 0.895157 0.268387 0.089874
| 18> Cl 0.212619 2.735046 -0.108798
| 19> Cl 0.890526 0.320768 2.851419
| 20> *
| 21> 
| 22>                          ****END OF INPUT****
================================================================================

                     *******************************
                     * Energy+Gradient Calculation *
                     *******************************

---------------------------------
CARTESIAN COORDINATES (ANGSTROEM)
---------------------------------
  C      2.905719    3.576013    2.873338
  N      2.134625    2.614408    2.046990
  H      3.548796    3.021424    3.560517
  H      2.209179    4.197444    3.440826
  H      3.515705    4.204875    2.220874
  H      1.516852    1.975028    2.601630
  H      2.717740    1.973704    1.464858
  H      1.486857    3.059076    1.361735
  Pb     0.505280    0.131547    0.209487
  Cl     0.895157    0.268387    0.089874
  Cl     0.212619    2.735046   -0.108798
  Cl     0.890526    0.320768    2.851419

----------------------------
CARTESIAN COORDINATES (A.U.)
----------------------------
  NO LB      ZA    FRAG    MASS        X           Y           Z
   0 C     6.0000    0    12.011          5.491013132131525          6.757685221342137          5.429821910189021
   1 N     7.0000    0    14.007          4.033856648621652          4.940515122332791          3.868250498875463
   2 H     1.0000    0     1.008          6.706252545155202          5.709663894456884          6.728402025170893
   3 H     1.0000    0     1.008          4.174743290810016          7.932019622470954          6.502218814475724
   4 H     1.0000    0     1.008          6.643719617657614          7.946062177372124          4.196843637946225
   5 H     1.0000    0     1.008          2.866434865690719          3.732262026826222          4.916368201793546
   6 H     1.0000    0     1.008          5.135784303203143          3.729760029424910          2.768180445083617
   7 H     1.0000    0     1.008          2.809752530303751          5.780815862851287          2.573306216975256
   8 Pb   22.0000*   0   207.200  0.954840820947730  0.248587803738939  0.395873058616761
   9 Cl   17.0000    0    35.453          1.691601576862546          0.507177927904723          0.169837246560039
  10 Cl   17.0000    0    35.453          0.401791680868203          5.168487903676784         -0.205598423918364
  11 Cl   17.0000    0    35.453          1.682850255136357          0.606163672525652          5.388401003059601
* core charge reduced due to ECP

--------------------------------
INTERNAL COORDINATES (ANGSTROEM)
--------------------------------
 C      0   0   0   0.000000     0.000     0.000
 N      1   0   0   1.483955     0.000     0.000
 H      1   2   0   1.092397   109.099     0.000
 H      1   2   3   1.092423   109.061   240.173
 H      1   2   3   1.092364   109.305   120.114
 H      2   1   3   1.047891   114.015    60.210
 H      2   1   3   1.043744   114.712   299.789
 H      2   1   3   1.042549   114.361   179.707
 Pb     7   2   1   3.140777   100.919   175.727
 Cl     9   7   2   0.430159    44.446   151.007
 Cl     8   2   1   1.972599   145.215   176.019
 Cl     6   2   1   1.786408   147.750   222.357

---------------------------
INTERNAL COORDINATES (A.U.)
---------------------------
 C      0   0   0   0.000000     0.000     0.000
 N      1   0   0   2.804268     0.000     0.000
 H      1   2   0   2.064332   109.099     0.000
 H      1   2   3   2.064379   109.061   240.173
 H      1   2   3   2.064269   109.305   120.114
 H      2   1   3   1.980227   114.015    60.210
 H      2   1   3   1.972391   114.712   299.789
 H      2   1   3   1.970131   114.361   179.707
 Pb     7   2   1   5.935208   100.919   175.727
 Cl     9   7   2   0.812882    44.446   151.007
 Cl     8   2   1   3.727671   145.215   176.019
 Cl     6   2   1   3.375823   147.750   222.357

---------------------
BASIS SET INFORMATION
---------------------
There are 5 groups of distinct atoms

 Group   1 Type C   : 11s6p2d1f contracted to 5s3p2d1f pattern {62111/411/11/1}
 Group   2 Type N   : 11s6p2d1f contracted to 5s3p2d1f pattern {62111/411/11/1}
 Group   3 Type H   : 5s1p contracted to 3s1p pattern {311/1}
 Group   4 Type Pb  : 10s9p8d2f contracted to 6s5p3d2f pattern {421111/33111/611/11}
 Group   5 Type Cl  : 14s9p3d1f contracted to 5s5p2d1f pattern {73211/51111/21/1}

Atom   0C    basis set group =>   1
Atom   1N    basis set group =>   2
Atom   2H    basis set group =>   3
Atom   3H    basis set group =>   3
Atom   4H    basis set group =>   3
Atom   5H    basis set group =>   3
Atom   6H    basis set group =>   3
Atom   7H    basis set group =>   3
Atom   8Pb   basis set group =>   4
Atom   9Cl   basis set group =>   5
Atom  10Cl   basis set group =>   5
Atom  11Cl   basis set group =>   5
-------------------------------
AUXILIARY BASIS SET INFORMATION
-------------------------------
There are 5 groups of distinct atoms

 Group   1 Type C   : 12s5p4d2f1g contracted to 6s4p3d1f1g pattern {711111/2111/211/2/1}
 Group   2 Type N   : 12s5p4d2f1g contracted to 6s4p3d1f1g pattern {711111/2111/211/2/1}
 Group   3 Type H   : 5s2p1d contracted to 3s1p1d pattern {311/2/1}
 Group   4 Type Pb  : 31s12p8d6f3g contracted to 31s12p8d6f3g pattern {1111111111111111111111111111111/111111111111/11111111/111111/111}
 Group   5 Type Cl  : 14s5p5d2f1g contracted to 8s4p3d1f1g pattern {71111111/2111/311/2/1}

Atom   0C    basis set group =>   1
Atom   1N    basis set group =>   2
Atom   2H    basis set group =>   3
Atom   3H    basis set group =>   3
Atom   4H    basis set group =>   3
Atom   5H    basis set group =>   3
Atom   6H    basis set group =>   3
Atom   7H    basis set group =>   3
Atom   8Pb   basis set group =>   4
Atom   9Cl   basis set group =>   5
Atom  10Cl   basis set group =>   5
Atom  11Cl   basis set group =>   5

-------------------------
ECP PARAMETER INFORMATION
-------------------------

 Group 1, Type Pb ECP SD(60,MDF) (replacing 60 core electrons, lmax=5)

Atom   8Pb   ECP group =>   1


------------------------------------------------------------------------------
                           ORCA GTO INTEGRAL CALCULATION
                           -- RI-GTO INTEGRALS CHOSEN --
------------------------------------------------------------------------------

                         BASIS SET STATISTICS AND STARTUP INFO

Gaussian basis set:
 # of primitive gaussian shells          ...  186
 # of primitive gaussian functions       ...  420
 # of contracted shells                  ...  101
 # of contracted basis functions         ...  259
 Highest angular momentum                ...    3
 Maximum contraction depth               ...    7
Auxiliary gaussian basis set:
 # of primitive gaussian shells          ...  237
 # of primitive gaussian functions       ...  643
 # of contracted shells                  ...  171
 # of contracted aux-basis functions     ...  493
 Highest angular momentum                ...    4
 Maximum contraction depth               ...    7
Ratio of auxiliary to basis functions    ...  1.90
Integral package used                  ... LIBINT
 One Electron integrals                  
   ECP integrals                         ... done
 Ordering auxiliary basis shells         ... done
 Integral threshhold             Thresh  ...  2.500e-11
 Primitive cut-off               TCut    ...  2.500e-12
 Pre-screening matrix                    ... done
 Shell pair data                         ... 
 Ordering of the shell pairs             ... done (   0.001 sec) 4530 of 5151 pairs
 Determination of significant pairs      ... done (   0.000 sec)
 Creation of shell pair data             ... done (   0.001 sec)
 Storage of shell pair data              ... done (   0.002 sec)
 Shell pair data done in (   0.004 sec)
 Computing two index integrals           ... done
 Cholesky decomposition of the V-matrix  ... done


Timings:
 Total evaluation time                   ...   0.922 sec (  0.015 min)
 One electron matrix time                ...   0.575 sec (  0.010 min) = 62.3%
 Schwartz matrix evaluation time         ...   0.289 sec (  0.005 min) = 31.4%
 Two index repulsion integral time       ...   0.011 sec (  0.000 min) =  1.2%
 Cholesky decomposition of V             ...   0.012 sec (  0.000 min) =  1.3%
 Three index repulsion integral time     ...   0.000 sec (  0.000 min) =  0.0%

-------------------------------------------------------------------------------
                                 ORCA SCF
-------------------------------------------------------------------------------

------------
SCF SETTINGS
------------
Hamiltonian:
 Density Functional     Method          .... DFT(GTOs)
 Exchange Functional    Exchange        .... B88
   X-Alpha parameter    XAlpha          ....  0.666667
   Becke's b parameter  XBeta           ....  0.004200
 Correlation Functional Correlation     .... LYP
 LDA part of GGA corr.  LDAOpt          .... VWN-3
 Gradients option       PostSCFGGA      .... off
 Hybrid DFT is turned on
   Fraction HF Exchange ScalHFX         ....  0.530000
   Scaling of DF-GGA-X  ScalDFX         ....  0.470000
   Scaling of DF-GGA-C  ScalDFC         ....  0.730000
   Scaling of DF-LDA-C  ScalLDAC        ....  0.730000
   Perturbative correction              ....  0.270000
 RI-approximation to the Coulomb term is turned on
   Number of auxiliary basis functions  .... 493
   RIJ-COSX (HFX calculated with COS-X)).... on


General Settings:
 Integral files         IntName         .... PbMACl3_mp2_7.orca
 Hartree-Fock type      HFTyp           .... RHF
 Total Charge           Charge          ....    0
 Multiplicity           Mult            ....    1
 Number of Electrons    NEL             ....   92
 Basis Dimension        Dim             ....  259
 Nuclear Repulsion      ENuc            ....   1016.2749463552 Eh

Convergence Acceleration:
 DIIS                   CNVDIIS         .... on
   Start iteration      DIISMaxIt       ....     0
   Startup error        DIISStart       ....  0.200000
   # of expansion vecs  DIISMaxEq       ....     5
   Bias factor          DIISBfac        ....   1.050
   Max. coefficient     DIISMaxC        ....  10.000
 Newton-Raphson         CNVNR           .... off
 SOSCF                  CNVSOSCF        .... on
   Start iteration      SOSCFMaxIt      ....   150
   Startup grad/error   SOSCFStart      ....  0.001000
 Level Shifting         CNVShift        .... on
   Level shift para.    LevelShift      ....    0.2500
   Turn off err/grad.   ShiftErr        ....    0.0000
 Zerner damping         CNVZerner       .... off
 Static damping         CNVDamp         .... on
   Fraction old density DampFac         ....    0.8500
   Max. Damping (<1)    DampMax         ....    0.9800
   Min. Damping (>=0)   DampMin         ....    0.0000
   Turn off err/grad.   DampErr         ....    0.0300
 Fernandez-Rico         CNVRico         .... off

SCF Procedure:
 Maximum # iterations   MaxIter         ....   125
 SCF integral mode      SCFMode         .... Direct
   Integral package                     .... LIBINT
 Reset frequeny         DirectResetFreq ....    20
 Integral Threshold     Thresh          ....  2.500e-11 Eh
 Primitive CutOff       TCut            ....  2.500e-12 Eh

Convergence Tolerance:
 Convergence Check Mode ConvCheckMode   .... Total+1el-Energy
 Energy Change          TolE            ....  1.000e-08 Eh
 1-El. energy change                    ....  1.000e-05 Eh
 Orbital Gradient       TolG            ....  1.000e-05
 Orbital Rotation angle TolX            ....  1.000e-05
 DIIS Error             TolErr          ....  5.000e-07


Diagonalization of the overlap matrix:
Smallest eigenvalue                        ... 7.729e-05
Time for diagonalization                   ...    0.021 sec
Threshold for overlap eigenvalues          ... 1.000e-08
Number of eigenvalues below threshold      ... 0
Time for construction of square roots      ...    0.010 sec
Total time needed                          ...    0.032 sec

---------------------
INITIAL GUESS: MOREAD
---------------------
Guess MOs are being read from file: previous.gbw
Input Geometry matches current geometry (good)
Input basis set matches current basis set (good)
MOs were renormalized
MOs were reorthogonalized (Schmidt)
                      ------------------
                      INITIAL GUESS DONE (   0.2 sec)
                      ------------------
-------------------
DFT GRID GENERATION
-------------------

General Integration Accuracy     IntAcc      ...  5.010
Radial Grid Type                 RadialGrid  ... Gauss-Chebyshev
Angular Grid (max. acc.)         AngularGrid ... Lebedev-434
Angular grid pruning method      GridPruning ... 3 (G Style)
Weight generation scheme         WeightScheme... Becke
Basis function cutoff            BFCut       ...    1.0000e-11
Integration weight cutoff        WCut        ...    1.0000e-14
Grids for H and He will be reduced by one unit

# of grid points (after initial pruning)     ... 115882 (   0.1 sec)
# of grid points (after weights+screening)   ... 108461 (   0.3 sec)
nearest neighbour list constructed           ...    0.0 sec
Grid point re-assignment to atoms done       ...    0.0 sec
Grid point division into batches done        ...    1.2 sec
Reduced shell lists constructed in    3.0 sec

Total number of grid points                  ...   108461
Total number of batches                      ...     1702
Average number of points per batch           ...       63
Average number of grid points per atom       ...     9038
Average number of shells per batch           ...    56.69 (56.13%)
Average number of basis functions per batch  ...   150.82 (58.23%)
Average number of large shells per batch     ...    43.63 (76.96%)
Average number of large basis fcns per batch ...   113.31 (75.13%)
Maximum spatial batch extension              ...  32.80, 33.20, 31.86 au
Average spatial batch extension              ...   2.43,  2.36,  2.36 au

Time for grid setup =    3.420 sec

--------------------
COSX GRID GENERATION
--------------------

General Integration Accuracy     IntAcc      ...  3.340
Radial Grid Type                 RadialGrid  ... Gauss-Chebyshev
Angular Grid (max. acc.)         AngularGrid ... Lebedev-50
Angular grid pruning method      GridPruning ... 3 (G Style)
Weight generation scheme         WeightScheme... Becke
Basis function cutoff            BFCut       ...    1.0000e-11
Integration weight cutoff        WCut        ...    1.0000e-14
Grids for H and He will be reduced by one unit

# of grid points (after initial pruning)     ...   6578 (   0.0 sec)
# of grid points (after weights+screening)   ...   6164 (   0.0 sec)
nearest neighbour list constructed           ...    0.0 sec
Grid point re-assignment to atoms done       ...    0.0 sec
Grid point division into batches done        ...    0.0 sec
Reduced shell lists constructed in    0.1 sec

Total number of grid points                  ...     6164
Total number of batches                      ...      103
Average number of points per batch           ...       59
Average number of grid points per atom       ...      514
Average number of shells per batch           ...    68.73 (68.05%)
Average number of basis functions per batch  ...   185.06 (71.45%)
Average number of large shells per batch     ...    54.77 (79.69%)
Average number of large basis fcns per batch ...   144.17 (77.91%)
Maximum spatial batch extension              ...  36.53, 26.37, 30.48 au
Average spatial batch extension              ...   6.57,  6.01,  6.16 au

Overlap Fitting                  UseSFitting ... on
Constructing numerical overlap ... done (      0.1 sec)
Inverting numerical overlap    ... done (      0.0 sec)
Obtaining analytic overlap     ... done (      0.0 sec)
Final contraction and storage  ... done (      0.0 sec)


General Integration Accuracy     IntAcc      ...  3.670
Radial Grid Type                 RadialGrid  ... Gauss-Chebyshev
Angular Grid (max. acc.)         AngularGrid ... Lebedev-50
Angular grid pruning method      GridPruning ... 3 (G Style)
Weight generation scheme         WeightScheme... Becke
Basis function cutoff            BFCut       ...    1.0000e-11
Integration weight cutoff        WCut        ...    1.0000e-14
Grids for H and He will be reduced by one unit

# of grid points (after initial pruning)     ...   8124 (   0.0 sec)
# of grid points (after weights+screening)   ...   7596 (   0.0 sec)
nearest neighbour list constructed           ...    0.0 sec
Grid point re-assignment to atoms done       ...    0.0 sec
Grid point division into batches done        ...    0.0 sec
Reduced shell lists constructed in    0.1 sec

Total number of grid points                  ...     7596
Total number of batches                      ...      123
Average number of points per batch           ...       61
Average number of grid points per atom       ...      633
Average number of shells per batch           ...    67.86 (67.19%)
Average number of basis functions per batch  ...   182.14 (70.32%)
Average number of large shells per batch     ...    53.82 (79.31%)
Average number of large basis fcns per batch ...   141.42 (77.64%)
Maximum spatial batch extension              ...  37.97, 28.67, 32.28 au
Average spatial batch extension              ...   5.85,  5.47,  5.73 au

Overlap Fitting                  UseSFitting ... on
Constructing numerical overlap ... done (      0.1 sec)
Inverting numerical overlap    ... done (      0.0 sec)
Obtaining analytic overlap     ... done (      0.0 sec)
Final contraction and storage  ... done (      0.0 sec)


General Integration Accuracy     IntAcc      ...  4.010
Radial Grid Type                 RadialGrid  ... Gauss-Chebyshev
Angular Grid (max. acc.)         AngularGrid ... Lebedev-110
Angular grid pruning method      GridPruning ... 3 (G Style)
Weight generation scheme         WeightScheme... Becke
Basis function cutoff            BFCut       ...    1.0000e-11
Integration weight cutoff        WCut        ...    1.0000e-14
Grids for H and He will be reduced by one unit

# of grid points (after initial pruning)     ...  15170 (   0.0 sec)
# of grid points (after weights+screening)   ...  14332 (   0.0 sec)
nearest neighbour list constructed           ...    0.0 sec
Grid point re-assignment to atoms done       ...    0.0 sec
Grid point division into batches done        ...    0.0 sec
Reduced shell lists constructed in    0.3 sec

Total number of grid points                  ...    14332
Total number of batches                      ...      229
Average number of points per batch           ...       62
Average number of grid points per atom       ...     1194
Average number of shells per batch           ...    63.90 (63.27%)
Average number of basis functions per batch  ...   171.72 (66.30%)
Average number of large shells per batch     ...    50.17 (78.51%)
Average number of large basis fcns per batch ...   132.05 (76.90%)
Maximum spatial batch extension              ...  39.26, 29.00, 34.29 au
Average spatial batch extension              ...   5.01,  4.80,  4.97 au

Overlap Fitting                  UseSFitting ... on
Constructing numerical overlap ... done (      0.2 sec)
Inverting numerical overlap    ... done (      0.0 sec)
Obtaining analytic overlap     ... done (      0.0 sec)
Final contraction and storage  ... done (      0.0 sec)

Time for X-Grid setup             =    1.267 sec
--------------
SCF ITERATIONS
--------------
ITER       Energy         Delta-E        Max-DP      RMS-DP      [F,P]     Damp
               ***  Starting incremental Fock matrix formation  ***
  0  -1557.0517366989   0.000000000000 0.16798477  0.00139554  0.0712306 0.8500
  1  -1557.0556987218  -0.003962022844 0.13858250  0.00128140  0.0608100 0.8500
                               ***Turning on DIIS***
  2  -1557.0591584635  -0.003459741719 0.11050366  0.00110771  0.0518965 0.8500
  3  -1557.0621042036  -0.002945740108 0.09077019  0.00097310  0.0442588 0.8500
  4  -1557.0646725435  -0.002568339845 0.08219046  0.00098549  0.0376413 0.8500
  5  -1557.0669226472  -0.002250103794 0.08020014  0.00101177  0.0319564 0.8500
  6  -1557.0689358098  -0.002013162594 0.52239140  0.00675983  0.0271310 0.0000
  7  -1557.0833275508  -0.014391740957 0.12462792  0.00142926  0.0033568 0.0000
  8  -1557.0842471720  -0.000919621188 0.21494828  0.00182660  0.0031068 0.0000
  9  -1557.0851026147  -0.000855442735 0.27755060  0.00240984  0.0027241 0.0000
 10  -1557.0861652527  -0.001062637940 0.31810642  0.00259367  0.0023037 0.0000
 11  -1557.0870566341  -0.000891381486 0.31027841  0.00251864  0.0023535 0.0000
 12  -1557.0877858619  -0.000729227737 0.37565427  0.00304706  0.0020594 0.0000
 13  -1557.0885425673  -0.000756705416 0.25423707  0.00206570  0.0020904 0.0000
 14  -1557.0889638483  -0.000421280990 0.38216827  0.00316641  0.0017380 0.0000
 15  -1557.0895187982  -0.000554949956 0.21039113  0.00176020  0.0017842 0.0000
 16  -1557.0897973604  -0.000278562171 0.23309819  0.00207509  0.0014840 0.0000
 17  -1557.0901003137  -0.000302953254 0.13768576  0.00127594  0.0013430 0.0000
 18  -1557.0902809287  -0.000180615060 0.13412368  0.00138218  0.0012794 0.0000
 19  -1557.0904773828  -0.000196454104 0.08004880  0.00094902  0.0013549 0.0000
               *** Restarting incremental Fock matrix formation ***
                                   *** Resetting DIIS ***
 20  -1557.0933507317  -0.002873348867 0.03619236  0.00043578  0.0013060 0.0000
 21  -1557.0934243206  -0.000073588886 0.02376364  0.00028443  0.0011988 0.0000
 22  -1557.0934825033  -0.000058182681 0.02134002  0.00027147  0.0011162 0.0000
 23  -1557.0935409466  -0.000058443365 0.02562663  0.00033877  0.0010808 0.0000
 24  -1557.0936151517  -0.000074205022 0.03483360  0.00046272  0.0010727 0.0000
 25  -1557.0937128110  -0.000097659297 0.02382427  0.00029794  0.0010993 0.0000
 26  -1557.0937596802  -0.000046869241 0.04423043  0.00061100  0.0009799 0.0000
               *** Restarting incremental Fock matrix formation ***
                                   *** Resetting DIIS ***
 27  -1557.0911088310   0.002650849195 0.03284101  0.00043455  0.0011245 0.0000
 28  -1557.0911601905  -0.000051359536 0.02018961  0.00028002  0.0009375 0.0000
 29  -1557.0912035220  -0.000043331426 0.02112737  0.00026295  0.0008924 0.0000
 30  -1557.0912455708  -0.000042048804 0.02417400  0.00030068  0.0008599 0.0000
 31  -1557.0912957354  -0.000050164634 0.03624209  0.00047789  0.0008569 0.0000
 32  -1557.0913756515  -0.000079916076 0.02967262  0.00028614  0.0009244 0.0000
 33  -1557.0914094873  -0.000033835777 0.04960513  0.00071997  0.0008008 0.0000
 34  -1557.0915238379  -0.000114350655 0.03645772  0.00031801  0.0010385 0.0000
 35  -1557.0915476613  -0.000023823442 0.06272669  0.00089916  0.0007630 0.0000
 36  -1557.0916761031  -0.000128441732 0.05304076  0.00049116  0.0010888 0.0000
 37  -1557.0917291479  -0.000053044801 0.07874717  0.00108511  0.0008339 0.0000
 38  -1557.0918567180  -0.000127570125 0.05775895  0.00049302  0.0011384 0.0000
 39  -1557.0919007003  -0.000043982298 0.09541974  0.00133635  0.0007709 0.0000
 40  -1557.0920264937  -0.000125793409 0.06665483  0.00055963  0.0016467 0.0000
 41  -1557.0920787420  -0.000052248253 0.08931078  0.00123470  0.0007504 0.0000
 42  -1557.0921727211  -0.000093979180 0.06545944  0.00053373  0.0016296 0.0000
 43  -1557.0922182860  -0.000045564864 0.09932391  0.00139926  0.0006884 0.0000
 44  -1557.0922908751  -0.000072589083 0.06627444  0.00052189  0.0019473 0.0000
 45  -1557.0923352049  -0.000044329830 0.07711075  0.00104248  0.0005842 0.0000
 46  -1557.0923802680  -0.000045063033 0.06586666  0.00052717  0.0014052 0.0000
               *** Restarting incremental Fock matrix formation ***
                                   *** Resetting DIIS ***
                      *** Initiating the SOSCF procedure ***
                           *** Shutting down DIIS ***
                      *** Re-Reading the Fockian *** 
                      *** Removing any level shift *** 
ITER      Energy       Delta-E        Grad      Rot      Max-DP    RMS-DP
 47  -1557.09241291  -0.0000326405  0.000881  0.000881  0.039289  0.000289
               *** Restarting incremental Fock matrix formation ***
 48  -1557.09242415  -0.0000112407  0.000734  0.006519  0.086771  0.000612
 49  -1557.09244596  -0.0000218075  0.000588  0.037268  0.464849  0.003324
 50  -1557.09250767  -0.0000617150  0.000424  0.011726  0.138857  0.001032
 51  -1557.09252384  -0.0000161682  0.000356  0.009019  0.076217  0.000851
 52  -1557.09253525  -0.0000114085  0.000286  0.002796  0.046398  0.000512
 53  -1557.09253773  -0.0000024806  0.000195  0.002371  0.036274  0.000375
 54  -1557.09253796  -0.0000002269  0.000151  0.002673  0.038584  0.000353
 55  -1557.09253961  -0.0000016555  0.000098  0.001754  0.020126  0.000172
 56  -1557.09254081  -0.0000012034  0.000040  0.000216  0.004077  0.000046
 57  -1557.09254121  -0.0000003925  0.000027  0.000142  0.005809  0.000040
 58  -1557.09254140  -0.0000001974  0.000007  0.000047  0.003195  0.000021
 59  -1557.09254137   0.0000000301  0.000005  0.000046  0.001288  0.000009
 60  -1557.09254134   0.0000000362  0.000005  0.000054  0.000976  0.000007
                  ***Gradient check signals convergence***
              ***Rediagonalizing the Fockian in SOSCF/NRSCF***

               *****************************************************
               *                     SUCCESS                       *
               *           SCF CONVERGED AFTER  61 CYCLES          *
               *****************************************************

Old exchange energy                            =    -62.161502902 Eh
New exchange energy                            =    -62.166538255 Eh
Exchange energy change after final integration =     -0.005035353 Eh
Total energy after final integration           =  -1557.097576654 Eh
Final COS-X integration done in                =    32.780 sec

----------------
TOTAL SCF ENERGY
----------------

Total Energy       :        -1557.09757665 Eh          -42370.77915 eV

Components:
Nuclear Repulsion  :         1016.27494636 Eh           27654.24721 eV
Electronic Energy  :        -2573.37252301 Eh          -70025.02635 eV

One Electron Energy:        -4103.10274762 Eh         -111651.10200 eV
Two Electron Energy:         1529.73022462 Eh           41626.07564 eV

Virial components:
Potential Energy   :        -3185.42387730 Eh          -86679.79042 eV
Kinetic Energy     :         1628.32630065 Eh           44309.01127 eV
Virial Ratio       :            1.95625648


DFT components:
N(Alpha)           :       46.000017881111 electrons
N(Beta)            :       46.000017881111 electrons
N(Total)           :       92.000035762223 electrons
E(X)               :      -55.253464893127 Eh       
E(C)               :       -2.702908158643 Eh       
E(XC)              :      -57.956373051770 Eh       

---------------
SCF CONVERGENCE
---------------

  Last Energy change         ...    3.7592e-08  Tolerance :   1.0000e-08
  Last MAX-Density change    ...    1.5621e-13  Tolerance :   1.0000e-07
  Last RMS-Density change    ...    2.4068e-15  Tolerance :   5.0000e-09
  Last Orbital Gradient      ...    1.9134e-06  Tolerance :   1.0000e-05
  Last Orbital Rotation      ...    4.0552e-05  Tolerance :   1.0000e-05

             **** THE GBW FILE WAS UPDATED (PbMACl3_mp2_7.orca.gbw) ****
             **** DENSITY FILE WAS UPDATED (PbMACl3_mp2_7.orca.scfp.tmp) ****
             **** ENERGY FILE WAS UPDATED (PbMACl3_mp2_7.orca.en.tmp) ****
----------------
ORBITAL ENERGIES
----------------

  NO   OCC          E(Eh)            E(eV) 
   0   2.0000    -108.844862     -2961.8193 
   1   2.0000    -102.854752     -2798.8201 
   2   2.0000    -102.835346     -2798.2920 
   3   2.0000     -15.277138      -415.7121 
   4   2.0000     -14.952932      -406.8900 
   5   2.0000     -13.480611      -366.8261 
   6   2.0000     -13.471737      -366.5846 
   7   2.0000     -11.401708      -310.2562 
   8   2.0000     -10.709459      -291.4192 
   9   2.0000      -9.864912      -268.4379 
  10   2.0000      -9.845941      -267.9217 
  11   2.0000      -7.501148      -204.1166 
  12   2.0000      -7.500728      -204.1052 
  13   2.0000      -7.500032      -204.0863 
  14   2.0000      -7.482133      -203.5992 
  15   2.0000      -7.481784      -203.5897 
  16   2.0000      -7.481068      -203.5702 
  17   2.0000      -6.503698      -176.9746 
  18   2.0000      -5.080367      -138.2438 
  19   2.0000      -5.069310      -137.9429 
  20   2.0000      -3.675856      -100.0251 
  21   2.0000      -2.518454       -68.5306 
  22   2.0000      -2.514133       -68.4130 
  23   2.0000      -1.998834       -54.3910 
  24   2.0000      -1.989671       -54.1417 
  25   2.0000      -1.482853       -40.3505 
  26   2.0000      -1.140471       -31.0338 
  27   2.0000      -0.916418       -24.9370 
  28   2.0000      -0.899471       -24.4758 
  29   2.0000      -0.857531       -23.3346 
  30   2.0000      -0.807468       -21.9723 
  31   2.0000      -0.795130       -21.6366 
  32   2.0000      -0.721256       -19.6264 
  33   2.0000      -0.668618       -18.1940 
  34   2.0000      -0.665863       -18.1190 
  35   2.0000      -0.601561       -16.3693 
  36   2.0000      -0.523636       -14.2489 
  37   2.0000      -0.521710       -14.1965 
  38   2.0000      -0.496479       -13.5099 
  39   2.0000      -0.381253       -10.3744 
  40   2.0000      -0.370076       -10.0703 
  41   2.0000      -0.365033        -9.9331 
  42   2.0000      -0.354570        -9.6483 
  43   2.0000      -0.351091        -9.5537 
  44   2.0000      -0.349244        -9.5034 
  45   2.0000      -0.107929        -2.9369 
  46   0.0000       0.006152         0.1674 
  47   0.0000       0.013999         0.3809 
  48   0.0000       0.037135         1.0105 
  49   0.0000       0.050848         1.3836 
  50   0.0000       0.073588         2.0024 
  51   0.0000       0.082083         2.2336 
  52   0.0000       0.087921         2.3925 
  53   0.0000       0.099396         2.7047 
  54   0.0000       0.106153         2.8886 
  55   0.0000       0.115518         3.1434 
  56   0.0000       0.116187         3.1616 
  57   0.0000       0.125040         3.4025 
  58   0.0000       0.144590         3.9345 
  59   0.0000       0.154043         4.1917 
  60   0.0000       0.157789         4.2936 
  61   0.0000       0.184089         5.0093 
  62   0.0000       0.185059         5.0357 
  63   0.0000       0.194825         5.3015 
  64   0.0000       0.231232         6.2921 
  65   0.0000       0.253121         6.8878 
  66   0.0000       0.259027         7.0485 
  67   0.0000       0.286693         7.8013 
  68   0.0000       0.299803         8.1581 
  69   0.0000       0.318075         8.6553 
  70   0.0000       0.331235         9.0134 
  71   0.0000       0.361586         9.8392 
  72   0.0000       0.372075        10.1247 
  73   0.0000       0.392568        10.6823 
  74   0.0000       0.400869        10.9082 
  75   0.0000       0.416268        11.3272 
  76   0.0000       0.424105        11.5405 
  77   0.0000       0.427975        11.6458 
  78   0.0000       0.440034        11.9739 
  79   0.0000       0.455386        12.3917 
  80   0.0000       0.459653        12.5078 
  81   0.0000       0.466693        12.6994 
  82   0.0000       0.475086        12.9278 
  83   0.0000       0.487090        13.2544 
  84   0.0000       0.488820        13.3015 
  85   0.0000       0.503153        13.6915 
  86   0.0000       0.510874        13.9016 
  87   0.0000       0.519522        14.1369 
  88   0.0000       0.534975        14.5574 
  89   0.0000       0.544155        14.8072 
  90   0.0000       0.552330        15.0297 
  91   0.0000       0.561896        15.2900 
  92   0.0000       0.570355        15.5202 
  93   0.0000       0.581605        15.8263 
  94   0.0000       0.599737        16.3197 
  95   0.0000       0.606831        16.5127 
  96   0.0000       0.635633        17.2964 
  97   0.0000       0.643707        17.5162 
  98   0.0000       0.662201        18.0194 
  99   0.0000       0.669289        18.2123 
 100   0.0000       0.682219        18.5641 
 101   0.0000       0.706858        19.2346 
 102   0.0000       0.721951        19.6453 
 103   0.0000       0.740101        20.1392 
 104   0.0000       0.747762        20.3476 
 105   0.0000       0.764016        20.7899 
 106   0.0000       0.781353        21.2617 
 107   0.0000       0.821973        22.3670 
 108   0.0000       0.842326        22.9209 
 109   0.0000       0.853672        23.2296 
 110   0.0000       0.877610        23.8810 
 111   0.0000       0.913667        24.8621 
 112   0.0000       0.934700        25.4345 
 113   0.0000       1.031594        28.0711 
 114   0.0000       1.044551        28.4237 
 115   0.0000       1.070308        29.1246 
 116   0.0000       1.124279        30.5932 
 117   0.0000       1.135995        30.9120 
 118   0.0000       1.178998        32.0822 
 119   0.0000       1.196359        32.5546 
 120   0.0000       1.202349        32.7176 
 121   0.0000       1.226672        33.3794 
 122   0.0000       1.235128        33.6095 
 123   0.0000       1.259212        34.2649 
 124   0.0000       1.305246        35.5175 
 125   0.0000       1.345627        36.6164 
 126   0.0000       1.358049        36.9544 
 127   0.0000       1.381131        37.5825 
 128   0.0000       1.405987        38.2589 
 129   0.0000       1.435678        39.0668 
 130   0.0000       1.498601        40.7790 
 131   0.0000       1.526966        41.5508 
 132   0.0000       1.533050        41.7164 
 133   0.0000       1.564231        42.5649 
 134   0.0000       1.585608        43.1466 
 135   0.0000       1.591527        43.3076 
 136   0.0000       1.617059        44.0024 
 137   0.0000       1.623951        44.1899 
 138   0.0000       1.635668        44.5088 
 139   0.0000       1.738368        47.3034 
 140   0.0000       1.779269        48.4164 
 141   0.0000       1.799039        48.9543 
 142   0.0000       1.841003        50.0962 
 143   0.0000       1.873330        50.9759 
 144   0.0000       1.885982        51.3202 
 145   0.0000       1.894371        51.5485 
 146   0.0000       1.925081        52.3841 
 147   0.0000       1.955755        53.2188 
 148   0.0000       1.972301        53.6690 
 149   0.0000       1.991884        54.2019 
 150   0.0000       1.996700        54.3330 
 151   0.0000       2.018733        54.9325 
 152   0.0000       2.023253        55.0555 
 153   0.0000       2.028788        55.2061 
 154   0.0000       2.057526        55.9881 
 155   0.0000       2.063878        56.1610 
 156   0.0000       2.073763        56.4300 
 157   0.0000       2.106964        57.3334 
 158   0.0000       2.109982        57.4155 
 159   0.0000       2.136332        58.1326 
 160   0.0000       2.152873        58.5826 
 161   0.0000       2.186953        59.5100 
 162   0.0000       2.195130        59.7325 
 163   0.0000       2.218196        60.3602 
 164   0.0000       2.225454        60.5577 
 165   0.0000       2.239363        60.9362 
 166   0.0000       2.244704        61.0815 
 167   0.0000       2.261062        61.5266 
 168   0.0000       2.268164        61.7199 
 169   0.0000       2.278714        62.0070 
 170   0.0000       2.294983        62.4497 
 171   0.0000       2.316718        63.0411 
 172   0.0000       2.320922        63.1555 
 173   0.0000       2.333012        63.4845 
 174   0.0000       2.362394        64.2840 
 175   0.0000       2.371379        64.5285 
 176   0.0000       2.381678        64.8088 
 177   0.0000       2.393079        65.1190 
 178   0.0000       2.400062        65.3090 
 179   0.0000       2.416216        65.7486 
 180   0.0000       2.419085        65.8266 
 181   0.0000       2.425831        66.0102 
 182   0.0000       2.458930        66.9109 
 183   0.0000       2.469201        67.1904 
 184   0.0000       2.494715        67.8847 
 185   0.0000       2.523642        68.6718 
 186   0.0000       2.556685        69.5709 
 187   0.0000       2.569257        69.9130 
 188   0.0000       2.581896        70.2570 
 189   0.0000       2.596244        70.6474 
 190   0.0000       2.620937        71.3193 
 191   0.0000       2.631737        71.6132 
 192   0.0000       2.635581        71.7178 
 193   0.0000       2.649996        72.1101 
 194   0.0000       2.773554        75.4722 
 195   0.0000       2.797453        76.1226 
 196   0.0000       2.804836        76.3235 
 197   0.0000       2.818334        76.6908 
 198   0.0000       2.889736        78.6337 
 199   0.0000       2.917841        79.3985 
 200   0.0000       2.993901        81.4682 
 201   0.0000       3.002105        81.6914 
 202   0.0000       3.096805        84.2683 
 203   0.0000       3.158437        85.9454 
 204   0.0000       3.178100        86.4805 
 205   0.0000       3.182817        86.6088 
 206   0.0000       3.212116        87.4061 
 207   0.0000       3.230487        87.9060 
 208   0.0000       3.255843        88.5960 
 209   0.0000       3.271228        89.0146 
 210   0.0000       3.308638        90.0326 
 211   0.0000       3.396913        92.4347 
 212   0.0000       3.559471        96.8581 
 213   0.0000       3.586592        97.5961 
 214   0.0000       3.592381        97.7537 
 215   0.0000       3.613555        98.3298 
 216   0.0000       3.688606       100.3721 
 217   0.0000       3.776565       102.7656 
 218   0.0000       3.812272       103.7372 
 219   0.0000       3.826477       104.1237 
 220   0.0000       3.938191       107.1636 
 221   0.0000       4.191010       114.0432 
 222   0.0000       4.204881       114.4206 
 223   0.0000       4.447823       121.0314 
 224   0.0000       4.452880       121.1690 
 225   0.0000       4.547713       123.7496 
 226   0.0000       4.855563       132.1266 
 227   0.0000       4.856249       132.1453 
 228   0.0000       4.963071       135.0520 
 229   0.0000       4.993222       135.8725 
 230   0.0000       5.067191       137.8853 
 231   0.0000       5.086095       138.3997 
 232   0.0000       5.127210       139.5185 
 233   0.0000       5.148882       140.1082 
 234   0.0000       5.222499       142.1114 
 235   0.0000       5.311759       144.5403 
 236   0.0000       5.516667       150.1161 
 237   0.0000       5.550487       151.0364 
 238   0.0000       5.609169       152.6333 
 239   0.0000       5.858467       159.4170 
 240   0.0000       8.430787       229.4134 
 241   0.0000       8.467379       230.4091 
 242   0.0000      10.359929       281.9080 
 243   0.0000      11.058664       300.9215 
 244   0.0000      11.073658       301.3296 
 245   0.0000      11.163908       303.7854 
 246   0.0000      11.188110       304.4439 
 247   0.0000      11.193386       304.5875 
 248   0.0000      11.266327       306.5724 
 249   0.0000      22.665756       616.7666 
 250   0.0000      25.317006       688.9108 
 251   0.0000      25.524673       694.5617 
 252   0.0000      32.424202       882.3074 
 253   0.0000      33.968797       924.3380 
 254   0.0000      36.723442       999.2956 
 255   0.0000      36.739769       999.7400 
 256   0.0000      38.133411      1037.6629 
 257   0.0000      64.182752      1746.5015 
 258   0.0000     120.988529      3292.2653 

                    ********************************
                    * MULLIKEN POPULATION ANALYSIS *
                    ********************************

-----------------------
MULLIKEN ATOMIC CHARGES
-----------------------
   0 C :   -0.252949
   1 N :   -0.302785
   2 H :    0.155314
   3 H :    0.160238
   4 H :    0.152213
   5 H :    0.304657
   6 H :    0.187661
   7 H :    0.301000
   8 Pb:   -2.151613
   9 Cl:    2.716029
  10 Cl:   -0.656356
  11 Cl:   -0.613407
Sum of atomic charges:   -0.0000000

--------------------------------
MULLIKEN REDUCED ORBITAL CHARGES
--------------------------------
  0 C s       :     3.275589  s :     3.275589
      pz      :     0.970833  p :     2.902095
      px      :     0.998155
      py      :     0.933107
      dz2     :     0.007439  d :     0.069260
      dxz     :     0.018628
      dyz     :     0.017571
      dx2y2   :     0.007516
      dxy     :     0.018107
      f0      :     0.000352  f :     0.006006
      f+1     :     0.000512
      f-1     :     0.000757
      f+2     :     0.000713
      f-2     :     0.002609
      f+3     :     0.000502
      f-3     :     0.000560
  1 N s       :     3.413102  s :     3.413102
      pz      :     1.290963  p :     3.837216
      px      :     1.278661
      py      :     1.267592
      dz2     :     0.005553  d :     0.050232
      dxz     :     0.013308
      dyz     :     0.011948
      dx2y2   :     0.006293
      dxy     :     0.013131
      f0      :     0.000144  f :     0.002235
      f+1     :     0.000162
      f-1     :     0.000202
      f+2     :     0.000217
      f-2     :     0.001164
      f+3     :     0.000164
      f-3     :     0.000182
  2 H s       :     0.822955  s :     0.822955
      pz      :     0.008319  p :     0.021731
      px      :     0.007689
      py      :     0.005723
  3 H s       :     0.817964  s :     0.817964
      pz      :     0.006971  p :     0.021798
      px      :     0.007340
      py      :     0.007488
  4 H s       :     0.826106  s :     0.826106
      pz      :     0.006774  p :     0.021681
      px      :     0.007337
      py      :     0.007570
  5 H s       :     0.641096  s :     0.641096
      pz      :     0.011538  p :     0.054247
      px      :     0.016647
      py      :     0.026062
  6 H s       :     0.776956  s :     0.776956
      pz      :     0.012338  p :     0.035384
      px      :     0.010101
      py      :     0.012945
  7 H s       :     0.651938  s :     0.651938
      pz      :     0.020365  p :     0.047062
      px      :     0.018662
      py      :     0.008036
  8 Pbs       :     3.613444  s :     3.613444
      pz      :     3.262890  p :    10.003270
      px      :     2.598320
      py      :     4.142060
      dz2     :     2.149775  d :    10.340152
      dxz     :     2.088405
      dyz     :     2.188959
      dx2y2   :     1.874200
      dxy     :     2.038812
      f0      :     0.046874  f :     0.194747
      f+1     :     0.014209
      f-1     :     0.022205
      f+2     :     0.045226
      f-2     :     0.023021
      f+3     :    -0.001902
      f-3     :     0.045114
  9 Cls       :     5.703440  s :     5.703440
      pz      :     2.805264  p :     8.151457
      px      :     3.007625
      py      :     2.338569
      dz2     :    -0.003751  d :     0.819317
      dxz     :     0.266779
      dyz     :    -0.082396
      dx2y2   :     0.287847
      dxy     :     0.350837
      f0      :    -0.036979  f :    -0.390244
      f+1     :    -0.062779
      f-1     :    -0.018001
      f+2     :    -0.060099
      f-2     :    -0.048292
      f+3     :    -0.088668
      f-3     :    -0.075426
 10 Cls       :     5.948741  s :     5.948741
      pz      :     3.907747  p :    11.679555
      px      :     3.922840
      py      :     3.848967
      dz2     :     0.002862  d :     0.027139
      dxz     :     0.003171
      dyz     :     0.004835
      dx2y2   :     0.009879
      dxy     :     0.006392
      f0      :     0.000075  f :     0.000921
      f+1     :     0.000128
      f-1     :     0.000091
      f+2     :     0.000177
      f-2     :     0.000029
      f+3     :     0.000090
      f-3     :     0.000332
 11 Cls       :     5.957656  s :     5.957656
      pz      :     3.828946  p :    11.623840
      px      :     3.933821
      py      :     3.861072
      dz2     :     0.013003  d :     0.030596
      dxz     :     0.006877
      dyz     :     0.004537
      dx2y2   :     0.003411
      dxy     :     0.002769
      f0      :     0.000462  f :     0.001315
      f+1     :     0.000211
      f-1     :     0.000163
      f+2     :     0.000047
      f-2     :     0.000064
      f+3     :     0.000270
      f-3     :     0.000097


                     *******************************
                     * LOEWDIN POPULATION ANALYSIS *
                     *******************************

----------------------
LOEWDIN ATOMIC CHARGES
----------------------
   0 C :   -0.282506
   1 N :    0.051480
   2 H :    0.123695
   3 H :    0.126889
   4 H :    0.121936
   5 H :    0.098924
   6 H :    0.138739
   7 H :    0.136681
   8 Pb:    4.106740
   9 Cl:   -4.044694
  10 Cl:   -0.324639
  11 Cl:   -0.253245

-------------------------------
LOEWDIN REDUCED ORBITAL CHARGES
-------------------------------
  0 C s       :     2.853684  s :     2.853684
      pz      :     1.032383  p :     3.085771
      px      :     1.045990
      py      :     1.007398
      dz2     :     0.031772  d :     0.305937
      dxz     :     0.080303
      dyz     :     0.079212
      dx2y2   :     0.031204
      dxy     :     0.083447
      f0      :     0.005386  f :     0.037114
      f+1     :     0.004079
      f-1     :     0.005941
      f+2     :     0.004162
      f-2     :     0.007016
      f+3     :     0.004948
      f-3     :     0.005582
  1 N s       :     3.010470  s :     3.010470
      pz      :     1.256974  p :     3.765479
      px      :     1.248621
      py      :     1.259884
      dz2     :     0.017267  d :     0.162801
      dxz     :     0.042332
      dyz     :     0.041475
      dx2y2   :     0.019574
      dxy     :     0.042154
      f0      :     0.001494  f :     0.009770
      f+1     :     0.001113
      f-1     :     0.001410
      f+2     :     0.001036
      f-2     :     0.001933
      f+3     :     0.001246
      f-3     :     0.001539
  2 H s       :     0.814093  s :     0.814093
      pz      :     0.022954  p :     0.062212
      px      :     0.021479
      py      :     0.017779
  3 H s       :     0.810915  s :     0.810915
      pz      :     0.019434  p :     0.062196
      px      :     0.022273
      py      :     0.020489
  4 H s       :     0.815937  s :     0.815937
      pz      :     0.020715  p :     0.062127
      px      :     0.020603
      py      :     0.020808
  5 H s       :     0.718921  s :     0.718921
      pz      :     0.039989  p :     0.182155
      px      :     0.054014
      py      :     0.088151
  6 H s       :     0.757933  s :     0.757933
      pz      :     0.034638  p :     0.103328
      px      :     0.032337
      py      :     0.036354
  7 H s       :     0.717294  s :     0.717294
      pz      :     0.062273  p :     0.146025
      px      :     0.056316
      py      :     0.027436
  8 Pbs       :     2.511258  s :     2.511258
      pz      :     2.042390  p :     6.600374
      px      :     2.147497
      py      :     2.410487
      dz2     :     1.482726  d :     7.494090
      dxz     :     1.537821
      dyz     :     1.310209
      dx2y2   :     1.574548
      dxy     :     1.588785
      f0      :     0.164737  f :     1.287539
      f+1     :     0.166401
      f-1     :     0.054880
      f+2     :     0.216607
      f-2     :     0.108939
      f+3     :     0.250725
      f-3     :     0.325250
  9 Cls       :     4.907540  s :     4.907540
      pz      :     3.535800  p :    10.775915
      px      :     3.646697
      py      :     3.593419
      dz2     :     0.775352  d :     4.301121
      dxz     :     0.936329
      dyz     :     0.736175
      dx2y2   :     0.877060
      dxy     :     0.976205
      f0      :     0.104168  f :     1.060118
      f+1     :     0.175691
      f-1     :     0.047649
      f+2     :     0.160707
      f-2     :     0.138960
      f+3     :     0.217685
      f-3     :     0.215259
 10 Cls       :     5.765526  s :     5.765526
      pz      :     3.846821  p :    11.506549
      px      :     3.878515
      py      :     3.781213
      dz2     :     0.005658  d :     0.049802
      dxz     :     0.005915
      dyz     :     0.007254
      dx2y2   :     0.019576
      dxy     :     0.011399
      f0      :     0.000140  f :     0.002762
      f+1     :     0.000313
      f-1     :     0.000380
      f+2     :     0.000415
      f-2     :     0.000066
      f+3     :     0.000370
      f-3     :     0.001078
 11 Cls       :     5.756292  s :     5.756292
      pz      :     3.763977  p :    11.443169
      px      :     3.895107
      py      :     3.784084
      dz2     :     0.022095  d :     0.050592
      dxz     :     0.009862
      dyz     :     0.006139
      dx2y2   :     0.006608
      dxy     :     0.005886
      f0      :     0.001150  f :     0.003194
      f+1     :     0.000547
      f-1     :     0.000459
      f+2     :     0.000100
      f-2     :     0.000112
      f+3     :     0.000648
      f-3     :     0.000178


                      *****************************
                      * MAYER POPULATION ANALYSIS *
                      *****************************

  NA   - Mulliken gross atomic population
  ZA   - Total nuclear charge
  QA   - Mulliken gross atomic charge
  VA   - Mayer's total valence
  BVA  - Mayer's bonded valence
  FA   - Mayer's free valence

  ATOM       NA         ZA         QA         VA         BVA        FA
  0 C      6.2529     6.0000    -0.2529     3.8447     3.8447     0.0000
  1 N      7.3028     7.0000    -0.3028     3.2212     3.2212    -0.0000
  2 H      0.8447     1.0000     0.1553     0.9632     0.9632     0.0000
  3 H      0.8398     1.0000     0.1602     0.9632     0.9632    -0.0000
  4 H      0.8478     1.0000     0.1522     0.9612     0.9612     0.0000
  5 H      0.6953     1.0000     0.3047     0.9895     0.9895    -0.0000
  6 H      0.8123     1.0000     0.1877     1.0648     1.0648    -0.0000
  7 H      0.6990     1.0000     0.3010     0.9738     0.9738     0.0000
  8 Pb    24.1516    22.0000    -2.1516    -4.4274    -4.4274    -0.0000
  9 Cl    14.2840    17.0000     2.7160    -5.7272    -5.7272     0.0000
 10 Cl    17.6564    17.0000    -0.6564     0.5994     0.5994     0.0000
 11 Cl    17.6134    17.0000    -0.6134     0.7213     0.7213    -0.0000

  Mayer bond orders larger than 0.1
B(  0-C ,  1-N ) :   0.9044 B(  0-C ,  2-H ) :   0.9703 B(  0-C ,  3-H ) :   0.9711 
B(  0-C ,  4-H ) :   0.9709 B(  1-N ,  5-H ) :   0.7383 B(  1-N ,  6-H ) :   0.8677 
B(  1-N ,  7-H ) :   0.7945 B(  5-H , 11-Cl) :   0.2253 B(  6-H ,  8-Pb) :   0.2595 
B(  7-H , 10-Cl) :   0.1593 B(  8-Pb,  9-Cl) :  -5.6038 B(  8-Pb, 10-Cl) :   0.4544 
B(  8-Pb, 11-Cl) :   0.5119 

-------
TIMINGS
-------

Total SCF time: 0 days 0 hours 19 min 36 sec 

Total time                  ....    1176.070 sec
Sum of individual times     ....    1141.956 sec  ( 97.1%)

Fock matrix formation       ....    1134.038 sec  ( 96.4%)
  Coulomb formation         ....     953.003 sec  ( 84.0% of F)
  Split-RI-J                ....      63.359 sec  (  5.6% of F)
  Chain of spheres X        ....     922.220 sec  ( 81.3% of F)
  COS-X 1 center corr.      ....       0.000 sec  (  0.0% of F)
  XC integration            ....     181.036 sec  ( 16.0% of F)
    Basis function eval.    ....      55.377 sec  ( 30.6% of XC)
    Density eval.           ....      53.140 sec  ( 29.4% of XC)
    XC-Functional eval.     ....      10.415 sec  (  5.8% of XC)
    XC-Potential eval.      ....      58.724 sec  ( 32.4% of XC)
Diagonalization             ....       1.947 sec  (  0.2%)
Density matrix formation    ....       0.148 sec  (  0.0%)
Population analysis         ....       0.083 sec  (  0.0%)
Initial guess               ....       0.167 sec  (  0.0%)
Orbital Transformation      ....       0.000 sec  (  0.0%)
Orbital Orthonormalization  ....       0.163 sec  (  0.0%)
DIIS solution               ....       0.580 sec  (  0.0%)
SOSCF solution              ....       0.306 sec  (  0.0%)
Grid generation             ....       4.687 sec  (  0.4%)

------------------------------------------------------------------------------
                              ORCA MP2 CALCULATION
------------------------------------------------------------------------------


----------------------
RI-MP2 ENERGY+GRADIENT
----------------------
Dimension of the basis                    ...  259
Memory devoted to MP2                     ... 1000 MB   
Data format for buffers                   ... DOUBLE
Compression type for matrix containers    ... UNCOMPRESSED
Overall scaling of the MP2 energy         ...   2.700e-01 Eh
Calculating two index integrals           ... done (    0.013 sec)
Cholesky decomposition of the V-matrix    ... done
Cholesky decomposition of V**-1           ... done (    0.046 sec)

-----------------
RI-TRANSFORMATION (AUX index driven)
-----------------

Dimension of the orbital-basis         ... 259
Dimension of the aux-basis             ... 493
Transformation of internal MOs         ...    0-  45
Transformation of internal/external MOs...    0-  45 to   46- 258
Number Format for Storage              ... Double (8 Byte)
Integral mode                          ... Direct

First Phase: integral generation and transformation of MO indices
  Aux angular momentum 0               ... done (    0.527 sec)
  Aux angular momentum 1               ... done (    0.425 sec)
  Aux angular momentum 2               ... done (    0.510 sec)
  Aux angular momentum 3               ... done (    0.301 sec)
  Aux angular momentum 4               ... done (    0.263 sec)
Closing buffer VIJ ( 0.00 GB; CompressionRatio= 1.95)
Closing buffer VIA ( 0.04 GB; CompressionRatio= 1.00)
  Phase 1 completed in     2.145 sec
Second Phase: sorting and transformation of aux index

IJ-Transformation
Memory available                       ... 990 MB 
Max. # MO pairs treated in a batch     ... 46    
# of internal orbitals                 ... 46
# batches for internal orbitals        ... 1
Closing buffer IJV ( 0.00 GB; CompressionRatio= 1.00)
(ij|v) transformation done in     0.137 sec

IA-Transformation
Memory available                       ... 990 MB 
Max. # MO pairs treated in a batch     ... 46    
# of internal orbitals                 ... 46
# batches for internal orbitals        ... 1
Closing buffer IAV ( 0.04 GB; CompressionRatio= 1.00)
(ia|v) transformation done in     0.579 sec

  Phase 2 completed in     0.743 sec
RI-Integral transformation completed in     2.888 sec
Opening buffers                              ... done

Starting loop over batches of integrals:

Operator 0  - window                       ... (  0- 45)x( 46-258)
Operator 0  - Memory available             ...  1000 MB
Operator 0  - Memory needed per MO         ...   1.6 MB
Operator 0  - Number of orbitals per batch ... 46
Operator 0  - Number of batches            ... 1

OPERATOR  0   PASS   0:  MOs     0 ...   45
  Reading integrals       ... ok
  Internal MO   2
  Internal MO   5
  Internal MO   8
  Internal MO  11
  Internal MO  14
  Internal MO  17
  Internal MO  20
  Internal MO  23
  Internal MO  26
  Internal MO  29
  Internal MO  32
  Internal MO  35
  Internal MO  38
  Internal MO  41
  Internal MO  44
Closing buffer GIPV ( 0.04 GB; CompressionRatio= 1.00)
Time spent in pair loops =    62.042 sec

-----------------------------------------------
 RI-MP2 CORRELATION ENERGY:     -0.580653915 Eh
-----------------------------------------------


---------------------
MP2 DENSITY FORMATION
---------------------

Completing the external part of the density      ... done
Storing the unrelaxed density                    ... done

Calculating the xc-kernel                        ... done
Calculating G(D)                                 ... done
Completing the Lagrangian                        ... done
Solving the Z-vector equations                   ... 

------------------------------------------------------------------------------
                           ORCA CP-SCF CALCULATION
------------------------------------------------------------------------------

Input orbitals are from        ... PbMACl3_mp2_7.orca.gbw
Input Perturbation             ... PbMACl3_mp2_7.orca.pin.tmp
Wavefunction output            ... PbMACl3_mp2_7.orca.pout.tmp
Perturbation mode              ... Real perturbation
Solver                         ... DIIS
   MaxDIIS                     ... 20
   Levelshift                  ...    3.000e-01 Eh
Max. number of iterations      ... 128
Convergence tolerance          ... 1.000e-08
Integral handling              ... Direct
COSX GridX                     ... 1
Number of perturbations        ... 1
Number of operators            ... 1
Orbital ranges used for CP-SCF:
 Operator 0:  Orbitals   0... 45  to  46...258
DFT calculation                         ... on
Exchange functional (SCF)               ... B88
Exchange functional (CP-SCF)            ... B88
   X-Alpha parameter    XAlpha (SCF)    ...  0.666667
   X-Alpha parameter    XAlpha (CP-SCF) ...  0.666667
   Becke's b parameter  XBeta (SCF)     ...  0.004200
   Becke's b parameter  XBeta (CP-SCF)  ...  0.004200
Correlation functional (SCF)            ... LYP
Correlation functional (CP-SCF)         ... LYP
 LDA part of GGA corr.  LDAOpt (SCF)    ... VWN-3
 LDA part of GGA corr.  LDAOpt (CP-SCF) ... VWN-3
Hybrid DFT                              ... on
   Exchange mixing (SCF)                ...  0.530
   Exchange mixing (CP-SCF)             ...  0.530
   GGA exch. scaling(SCF)               ...  0.470
   GGA exch. scaling (CP-SCF)           ...  0.470
   GGA corr. scaling (SCF)              ...  0.730
   GGA corr. scaling (CP-SCF)           ...  0.730
The RIJCOSX approximation is active
Variables per vector in CP-SCF ... 9798
Number of vectors sought       ... 1
Calculating the xc-kernel      ... done

Solving the CP-SCF equations by a DIIS algorithm

-----------------
CP-SCF ITERATIONS
-----------------
  Iteration   0: MaxR=  0.082944777
  Iteration   1: MaxR=  0.039429728
  Iteration   2: MaxR=  0.016185164
  Iteration   3: MaxR=  0.011907152
  Iteration   4: MaxR=  0.009954238
  Iteration   5: MaxR=  0.008308944
  Iteration   6: MaxR=  0.006564426
  Iteration   7: MaxR=  0.005472998
  Iteration   8: MaxR=  0.004819514
  Iteration   9: MaxR=  0.004217219
  Iteration  10: MaxR=  0.003532213
  Iteration  11: MaxR=  0.002877750
  Iteration  12: MaxR=  0.002389203
  Iteration  13: MaxR=  0.002020383
  Iteration  14: MaxR=  0.001681979
  Iteration  15: MaxR=  0.001170042
  Iteration  16: MaxR=  0.000655920
  Iteration  17: MaxR=  0.000395327
  Iteration  18: MaxR=  0.000285124
  Iteration  19: MaxR=  0.000214189
  Iteration  20: MaxR=  0.000153830
  Iteration  21: MaxR=  0.000091758
  Iteration  22: MaxR=  0.000039412
  Iteration  23: MaxR=  0.000018261
  Iteration  24: MaxR=  0.000010121
  Iteration  25: MaxR=  0.000007007
  Iteration  26: MaxR=  0.000005338
  Iteration  27: MaxR=  0.000004190
  Iteration  28: MaxR=  0.000003331
  Iteration  29: MaxR=  0.000002164
  Iteration  30: MaxR=  0.000001093
  Iteration  31: MaxR=  0.000000480
  Iteration  32: MaxR=  0.000000253
  Iteration  33: MaxR=  0.000000147
  Iteration  34: MaxR=  0.000000090
  Iteration  35: MaxR=  0.000000064
  Iteration  36: MaxR=  0.000000050
  Iteration  37: MaxR=  0.000000039
  Iteration  38: MaxR=  0.000000033
  Iteration  39: MaxR=  0.000000028
  Iteration  40: MaxR=  0.000000023
  Iteration  41: MaxR=  0.000000017
  Iteration  42: MaxR=  0.000000013
  Iteration  43: MaxR=  0.000000009
                              *** THE CP-SCF HAS CONVERGED *** 
done
Finalizing the relaxed density                   ... done
Transforming P to the AO basis                   ... done
Storing the relaxed density                      ... done

------------------------------------
ENERGY WEIGHTED DENSITY FINALIZATION
------------------------------------

Gathering the parts of the W-matrix              ... done
Forming the Z-density                            ... done
Transforming Z to the AO basis                   ... done
Calculating G(Z)                                 ... done
Finalizing the W-matrix                          ... done
Transforming W to the AO basis and storing       ... done
Entering the RIJONX and RIJCOSX sections
Starting the three-index derivative integrals:
Operator 0  - Memory available             ...  1000 MB
Operator 0  - Memory needed per MO         ...   1.0 MB
Operator 0  - Number of orbitals per batch ... 46
Operator 0  - Number of batches            ... 1

OPERATOR  0   PASS   0:  MOs     0 ...   45

----------------------------------
MP2 DERIVATIVE INTEGRAL GENERATION
----------------------------------


Input Correlated Electron Density   ... PbMACl3_mp2_7.orca.pmp2re
Input Energy Weighted Density       ... PbMACl3_mp2_7.orca.wmp2.tmp
Input SCF Electron Density          ... PbMACl3_mp2_7.orca.scfp.tmp

One-Electron Terms    ...
  ECP gradient                                           ... One-Electron Terms done

-----------------------------------------------------------
MP2 COSX Grid Generation
-----------------------------------------------------------

General Integration Accuracy     IntAcc      ...  4.340
Radial Grid Type                 RadialGrid  ... Gauss-Chebyshev
Angular Grid (max. acc.)         AngularGrid ... Lebedev-302
Angular grid pruning method      GridPruning ... 3 (G Style)
Weight generation scheme         WeightScheme... Becke
Basis function cutoff            BFCut       ...    1.0000e-11
Integration weight cutoff        WCut        ...    1.0000e-14
Grids for H and He will be reduced by one unit

# of grid points (after initial pruning)     ...  57718 (   0.0 sec)
# of grid points (after weights+screening)   ...  54218 (   0.2 sec)
nearest neighbour list constructed           ...    0.0 sec
Grid point re-assignment to atoms done       ...    0.0 sec
Grid point division into batches done        ...    0.3 sec
Reduced shell lists constructed in    1.2 sec

Total number of grid points                  ...    54218
Total number of batches                      ...      853
Average number of points per batch           ...       63
Average number of grid points per atom       ...     4518
Average number of shells per batch           ...    58.33 (57.75%)
Average number of basis functions per batch  ...   155.89 (60.19%)
Average number of large shells per batch     ...    44.96 (77.08%)
Average number of large basis fcns per batch ...   117.42 (75.32%)
Maximum spatial batch extension              ...  36.77, 36.02, 28.74 au
Average spatial batch extension              ...   3.16,  3.03,  3.02 au

Overlap Fitting                  UseSFitting ... on
Two electron COSX terms .... 
Integration Timings:
Total Time                  =   137.8 sec
Basis fcn evaluation        =     0.4 sec
Density evaluation          =     1.4 sec
Integral evaluation         =   133.1 sec
K(P) evaluation             =     1.2 sec
                          .... COSX two electron terms done
COSX two-electron contribution to the gradient
     0:    -0.022203    -0.022728    -0.020066
     1:     0.040947     0.045158     0.060172
     2:     0.100063    -0.081741     0.106421
     3:    -0.103783     0.098528     0.089898
     4:     0.094525     0.097372    -0.097095
     5:    -0.099275    -0.088538     0.090156
     6:     0.110831    -0.119048    -0.109810
     7:    -0.112482     0.080294    -0.112849
     8:    17.658234     6.180019    -5.519211
     9:   -17.662865    -6.205677     5.476372
    10:    -0.004279     0.019024    -0.004571
    11:     0.001886    -0.001308     0.040292
Exchange-correlation gradient    ... done
Dispersion correction            ... 
Entering the calculation of the dispersion correction...

Checking the input atom types...

Done
done

                *********************************************
                * UNRELAXED MP2 DENSITY POPULATION ANALYSIS *
                *********************************************

------------------------------------------------------------------------------
                           ORCA POPULATION ANALYSIS
------------------------------------------------------------------------------
Input electron density              ... PbMACl3_mp2_7.orca.pmp2ur
BaseName (.gbw .S,...)              ... PbMACl3_mp2_7.orca

                    ********************************
                    * MULLIKEN POPULATION ANALYSIS *
                    ********************************

-----------------------
MULLIKEN ATOMIC CHARGES
-----------------------
   0 C :   -0.257586
   1 N :   -0.301962
   2 H :    0.156318
   3 H :    0.161303
   4 H :    0.153234
   5 H :    0.303278
   6 H :    0.186380
   7 H :    0.299855
   8 Pb:   -2.117065
   9 Cl:    2.674444
  10 Cl:   -0.651146
  11 Cl:   -0.607054
Sum of atomic charges:   -0.0000000

--------------------------------
MULLIKEN REDUCED ORBITAL CHARGES
--------------------------------
  0 C s       :     3.274435  s :     3.274435
      pz      :     0.969469  p :     2.898140
      px      :     0.996638
      py      :     0.932033
      dz2     :     0.009469  d :     0.077863
      dxz     :     0.020201
      dyz     :     0.019045
      dx2y2   :     0.009521
      dxy     :     0.019627
      f0      :     0.000509  f :     0.007148
      f+1     :     0.000687
      f-1     :     0.000928
      f+2     :     0.000895
      f-2     :     0.002734
      f+3     :     0.000668
      f-3     :     0.000727
  1 N s       :     3.410874  s :     3.410874
      pz      :     1.287370  p :     3.826451
      px      :     1.275093
      py      :     1.263989
      dz2     :     0.007892  d :     0.061353
      dxz     :     0.015457
      dyz     :     0.014115
      dx2y2   :     0.008629
      dxy     :     0.015260
      f0      :     0.000289  f :     0.003283
      f+1     :     0.000314
      f-1     :     0.000355
      f+2     :     0.000373
      f-2     :     0.001306
      f+3     :     0.000314
      f-3     :     0.000332
  2 H s       :     0.820934  s :     0.820934
      pz      :     0.008644  p :     0.022748
      px      :     0.008023
      py      :     0.006082
  3 H s       :     0.815895  s :     0.815895
      pz      :     0.007304  p :     0.022803
      px      :     0.007680
      py      :     0.007819
  4 H s       :     0.824062  s :     0.824062
      pz      :     0.007124  p :     0.022704
      px      :     0.007675
      py      :     0.007905
  5 H s       :     0.641822  s :     0.641822
      pz      :     0.011774  p :     0.054900
      px      :     0.016854
      py      :     0.026272
  6 H s       :     0.777546  s :     0.777546
      pz      :     0.012576  p :     0.036074
      px      :     0.010327
      py      :     0.013171
  7 H s       :     0.652474  s :     0.652474
      pz      :     0.020550  p :     0.047671
      px      :     0.018843
      py      :     0.008278
  8 Pbs       :     3.596815  s :     3.596815
      pz      :     3.258773  p :     9.963815
      px      :     2.590915
      py      :     4.114126
      dz2     :     2.148209  d :    10.337995
      dxz     :     2.086627
      dyz     :     2.188563
      dx2y2   :     1.874896
      dxy     :     2.039701
      f0      :     0.050119  f :     0.218440
      f+1     :     0.017749
      f-1     :     0.026236
      f+2     :     0.048055
      f-2     :     0.026575
      f+3     :     0.001658
      f-3     :     0.048048
  9 Cls       :     5.702903  s :     5.702903
      pz      :     2.799148  p :     8.153816
      px      :     3.006040
      py      :     2.348629
      dz2     :     0.005187  d :     0.854104
      dxz     :     0.273128
      dyz     :    -0.072471
      dx2y2   :     0.293488
      dxy     :     0.354772
      f0      :    -0.036262  f :    -0.385267
      f+1     :    -0.062265
      f-1     :    -0.017312
      f+2     :    -0.059343
      f-2     :    -0.047737
      f+3     :    -0.087758
      f-3     :    -0.074589
 10 Cls       :     5.944548  s :     5.944548
      pz      :     3.892901  p :    11.635069
      px      :     3.908141
      py      :     3.834027
      dz2     :     0.010907  d :     0.067726
      dxz     :     0.011180
      dyz     :     0.013097
      dx2y2   :     0.017913
      dxy     :     0.014629
      f0      :     0.000474  f :     0.003803
      f+1     :     0.000519
      f-1     :     0.000505
      f+2     :     0.000593
      f-2     :     0.000438
      f+3     :     0.000520
      f-3     :     0.000753
 11 Cls       :     5.953371  s :     5.953371
      pz      :     3.813454  p :    11.578522
      px      :     3.919074
      py      :     3.845994
      dz2     :     0.021091  d :     0.070975
      dxz     :     0.014958
      dyz     :     0.012779
      dx2y2   :     0.011409
      dxy     :     0.010737
      f0      :     0.000892  f :     0.004187
      f+1     :     0.000632
      f-1     :     0.000597
      f+2     :     0.000451
      f-2     :     0.000467
      f+3     :     0.000660
      f-3     :     0.000488


                     *******************************
                     * LOEWDIN POPULATION ANALYSIS *
                     *******************************

----------------------
LOEWDIN ATOMIC CHARGES
----------------------
   0 C :   -0.285584
   1 N :    0.050554
   2 H :    0.124414
   3 H :    0.127645
   4 H :    0.122660
   5 H :    0.098651
   6 H :    0.138053
   7 H :    0.136214
   8 Pb:    4.099463
   9 Cl:   -4.041837
  10 Cl:   -0.321120
  11 Cl:   -0.249113

-------------------------------
LOEWDIN REDUCED ORBITAL CHARGES
-------------------------------
  0 C s       :     2.853092  s :     2.853092
      pz      :     1.030000  p :     3.078711
      px      :     1.043528
      py      :     1.005183
      dz2     :     0.033554  d :     0.314896
      dxz     :     0.082117
      dyz     :     0.081008
      dx2y2   :     0.032987
      dxy     :     0.085230
      f0      :     0.005614  f :     0.038885
      f+1     :     0.004293
      f-1     :     0.006148
      f+2     :     0.004376
      f-2     :     0.007480
      f+3     :     0.005178
      f-3     :     0.005796
  1 N s       :     3.009954  s :     3.009954
      pz      :     1.253111  p :     3.753829
      px      :     1.244840
      py      :     1.255879
      dz2     :     0.019340  d :     0.174528
      dxz     :     0.044869
      dyz     :     0.044027
      dx2y2   :     0.021639
      dxy     :     0.044653
      f0      :     0.001676  f :     0.011134
      f+1     :     0.001290
      f-1     :     0.001585
      f+2     :     0.001214
      f-2     :     0.002223
      f+3     :     0.001431
      f-3     :     0.001714
  2 H s       :     0.811520  s :     0.811520
      pz      :     0.023606  p :     0.064066
      px      :     0.022107
      py      :     0.018353
  3 H s       :     0.808328  s :     0.808328
      pz      :     0.020010  p :     0.064027
      px      :     0.022914
      py      :     0.021104
  4 H s       :     0.813346  s :     0.813346
      pz      :     0.021342  p :     0.063994
      px      :     0.021215
      py      :     0.021437
  5 H s       :     0.718270  s :     0.718270
      pz      :     0.040416  p :     0.183079
      px      :     0.054369
      py      :     0.088294
  6 H s       :     0.756939  s :     0.756939
      pz      :     0.035196  p :     0.105008
      px      :     0.032849
      py      :     0.036963
  7 H s       :     0.716517  s :     0.716517
      pz      :     0.062684  p :     0.147269
      px      :     0.056701
      py      :     0.027884
  8 Pbs       :     2.505227  s :     2.505227
      pz      :     2.041205  p :     6.588524
      px      :     2.145256
      py      :     2.402064
      dz2     :     1.483570  d :     7.496839
      dxz     :     1.537130
      dyz     :     1.313911
      dx2y2   :     1.573597
      dxy     :     1.588630
      f0      :     0.167853  f :     1.309948
      f+1     :     0.170203
      f-1     :     0.059004
      f+2     :     0.219003
      f-2     :     0.113067
      f+3     :     0.253438
      f-3     :     0.327379
  9 Cls       :     4.905175  s :     4.905175
      pz      :     3.532158  p :    10.762777
      px      :     3.641315
      py      :     3.589304
      dz2     :     0.777839  d :     4.308043
      dxz     :     0.937129
      dyz     :     0.738963
      dx2y2   :     0.878221
      dxy     :     0.975892
      f0      :     0.105122  f :     1.065842
      f+1     :     0.176560
      f-1     :     0.048762
      f+2     :     0.161321
      f-2     :     0.140039
      f+3     :     0.218213
      f-3     :     0.215824
 10 Cls       :     5.761213  s :     5.761213
      pz      :     3.832410  p :    11.463689
      px      :     3.864031
      py      :     3.767248
      dz2     :     0.013764  d :     0.090496
      dxz     :     0.013934
      dyz     :     0.015490
      dx2y2   :     0.027714
      dxy     :     0.019594
      f0      :     0.000544  f :     0.005722
      f+1     :     0.000710
      f-1     :     0.000811
      f+2     :     0.000841
      f-2     :     0.000481
      f+3     :     0.000816
      f-3     :     0.001519
 11 Cls       :     5.752045  s :     5.752045
      pz      :     3.749542  p :    11.399833
      px      :     3.880495
      py      :     3.769796
      dz2     :     0.030307  d :     0.091086
      dxz     :     0.017931
      dyz     :     0.014344
      dx2y2   :     0.014634
      dxy     :     0.013871
      f0      :     0.001617  f :     0.006148
      f+1     :     0.000979
      f-1     :     0.000902
      f+2     :     0.000509
      f-2     :     0.000522
      f+3     :     0.001045
      f-3     :     0.000574


                      *****************************
                      * MAYER POPULATION ANALYSIS *
                      *****************************

  NA   - Mulliken gross atomic population
  ZA   - Total nuclear charge
  QA   - Mulliken gross atomic charge
  VA   - Mayer's total valence
  BVA  - Mayer's bonded valence
  FA   - Mayer's free valence

  ATOM       NA         ZA         QA         VA         BVA        FA
  0 C      6.2576     6.0000    -0.2576     3.8903     3.7748     0.1156
  1 N      7.3020     7.0000    -0.3020     3.2980     3.1522     0.1458
[...]
 11 Cl    17.6071    17.0000    -0.6071     0.9615     0.7009     0.2606

  Mayer bond orders larger than 0.1
B(  0-C ,  1-N ) :   0.8814 B(  0-C ,  2-H ) :   0.9550 B(  0-C ,  3-H ) :   0.9559 
B(  0-C ,  4-H ) :   0.9556 B(  1-N ,  5-H ) :   0.7252 B(  1-N ,  6-H ) :   0.8506 
B(  1-N ,  7-H ) :   0.7802 B(  5-H , 11-Cl) :   0.2212 B(  6-H ,  8-Pb) :   0.2528 
B(  7-H , 10-Cl) :   0.1567 B(  8-Pb,  9-Cl) :  -5.4930 B(  8-Pb, 10-Cl) :   0.4462 
B(  8-Pb, 11-Cl) :   0.5000 


                *******************************************
                * RELAXED MP2 DENSITY POPULATION ANALYSIS *
                *******************************************

------------------------------------------------------------------------------
                           ORCA POPULATION ANALYSIS
------------------------------------------------------------------------------
Input electron density              ... PbMACl3_mp2_7.orca.pmp2re
BaseName (.gbw .S,...)              ... PbMACl3_mp2_7.orca

                    ********************************
                    * MULLIKEN POPULATION ANALYSIS *
                    ********************************

-----------------------
MULLIKEN ATOMIC CHARGES
-----------------------
   0 C :   -0.273190
   1 N :   -0.283130
   2 H :    0.159090
   3 H :    0.163965
   4 H :    0.156671
   5 H :    0.290531
   6 H :    0.150558
   7 H :    0.288987
   8 Pb:   -2.100373
   9 Cl:    2.655704
  10 Cl:   -0.627951
  11 Cl:   -0.580861
Sum of atomic charges:    0.0000000

--------------------------------
MULLIKEN REDUCED ORBITAL CHARGES
--------------------------------
  0 C s       :     3.274829  s :     3.274829
      pz      :     0.976110  p :     2.917600
      px      :     1.002265
      py      :     0.939224
      dz2     :     0.009696  d :     0.073774
      dxz     :     0.018644
      dyz     :     0.017593
      dx2y2   :     0.009729
      dxy     :     0.018112
      f0      :     0.000491  f :     0.006988
      f+1     :     0.000677
      f-1     :     0.000910
      f+2     :     0.000890
      f-2     :     0.002650
      f+3     :     0.000653
      f-3     :     0.000717
  1 N s       :     3.402316  s :     3.402316
      pz      :     1.282910  p :     3.817226
      px      :     1.274053
      py      :     1.260263
      dz2     :     0.008048  d :     0.060354
      dxz     :     0.015072
      dyz     :     0.013624
      dx2y2   :     0.008831
      dxy     :     0.014778
      f0      :     0.000286  f :     0.003234
      f+1     :     0.000314
      f-1     :     0.000356
      f+2     :     0.000373
      f-2     :     0.001263
      f+3     :     0.000310
      f-3     :     0.000332
  2 H s       :     0.818528  s :     0.818528
      pz      :     0.008452  p :     0.022382
      px      :     0.007886
      py      :     0.006044
  3 H s       :     0.813614  s :     0.813614
      pz      :     0.007194  p :     0.022421
      px      :     0.007547
      py      :     0.007680
  4 H s       :     0.820975  s :     0.820975
      pz      :     0.007034  p :     0.022354
      px      :     0.007560
      py      :     0.007760
  5 H s       :     0.655270  s :     0.655270
      pz      :     0.011682  p :     0.054199
      px      :     0.016671
      py      :     0.025845
  6 H s       :     0.812867  s :     0.812867
      pz      :     0.012844  p :     0.036576
      px      :     0.010295
      py      :     0.013437
  7 H s       :     0.663916  s :     0.663916
      pz      :     0.020246  p :     0.047097
      px      :     0.018596
      py      :     0.008256
  8 Pbs       :     3.682084  s :     3.682084
      pz      :     3.364966  p :     9.866344
      px      :     2.537572
      py      :     3.963806
      dz2     :     2.140351  d :    10.332884
      dxz     :     2.082735
      dyz     :     2.182677
      dx2y2   :     1.883845
      dxy     :     2.043276
      f0      :     0.049214  f :     0.219061
      f+1     :     0.018783
      f-1     :     0.027186
      f+2     :     0.043874
      f-2     :     0.024490
      f+3     :     0.007590
      f-3     :     0.047924
  9 Cls       :     5.650406  s :     5.650406
      pz      :     2.762682  p :     8.218723
      px      :     3.032792
      py      :     2.423249
      dz2     :     0.013846  d :     0.851603
      dxz     :     0.280739
      dyz     :    -0.069130
      dx2y2   :     0.274540
      dxy     :     0.351608
      f0      :    -0.035613  f :    -0.376436
      f+1     :    -0.061990
      f-1     :    -0.017190
      f+2     :    -0.057878
      f-2     :    -0.046596
      f+3     :    -0.084030
      f-3     :    -0.073140
 10 Cls       :     5.945813  s :     5.945813
      pz      :     3.885063  p :    11.609115
      px      :     3.900950
      py      :     3.823103
      dz2     :     0.011016  d :     0.069166
      dxz     :     0.011371
      dyz     :     0.013735
      dx2y2   :     0.018400
      dxy     :     0.014643
      f0      :     0.000481  f :     0.003856
      f+1     :     0.000525
      f-1     :     0.000510
      f+2     :     0.000609
      f-2     :     0.000440
      f+3     :     0.000522
      f-3     :     0.000769
 11 Cls       :     5.953602  s :     5.953602
      pz      :     3.802286  p :    11.550614
      px      :     3.912747
      py      :     3.835581
      dz2     :     0.021847  d :     0.072410
      dxz     :     0.015250
      dyz     :     0.012946
      dx2y2   :     0.011415
      dxy     :     0.010952
      f0      :     0.000909  f :     0.004235
      f+1     :     0.000638
      f-1     :     0.000606
      f+2     :     0.000451
      f-2     :     0.000471
      f+3     :     0.000667
      f-3     :     0.000493


                     *******************************
                     * LOEWDIN POPULATION ANALYSIS *
                     *******************************

----------------------
LOEWDIN ATOMIC CHARGES
----------------------
   0 C :   -0.296669
   1 N :    0.043820
   2 H :    0.126216
   3 H :    0.129112
   4 H :    0.124691
   5 H :    0.095209
   6 H :    0.116193
   7 H :    0.132842
   8 Pb:    4.123842
   9 Cl:   -4.053949
  10 Cl:   -0.305989
  11 Cl:   -0.235316

-------------------------------
LOEWDIN REDUCED ORBITAL CHARGES
-------------------------------
  0 C s       :     2.854254  s :     2.854254
      pz      :     1.034582  p :     3.092555
      px      :     1.047813
      py      :     1.010160
      dz2     :     0.033755  d :     0.311176
      dxz     :     0.080557
      dyz     :     0.079668
      dx2y2   :     0.033472
      dxy     :     0.083725
      f0      :     0.005598  f :     0.038685
      f+1     :     0.004259
      f-1     :     0.006113
      f+2     :     0.004368
      f-2     :     0.007389
      f+3     :     0.005153
      f-3     :     0.005805
  1 N s       :     3.013537  s :     3.013537
      pz      :     1.253821  p :     3.756725
      px      :     1.246071
      py      :     1.256832
      dz2     :     0.019588  d :     0.174673
      dxz     :     0.044775
      dyz     :     0.044071
      dx2y2   :     0.021923
      dxy     :     0.044317
      f0      :     0.001692  f :     0.011245
      f+1     :     0.001295
      f-1     :     0.001595
      f+2     :     0.001214
      f-2     :     0.002284
      f+3     :     0.001439
      f-3     :     0.001726
  2 H s       :     0.809649  s :     0.809649
      pz      :     0.023559  p :     0.064136
      px      :     0.022119
      py      :     0.018458
  3 H s       :     0.806810  s :     0.806810
      pz      :     0.020039  p :     0.064078
      px      :     0.022919
      py      :     0.021120
  4 H s       :     0.811209  s :     0.811209
      pz      :     0.021409  p :     0.064101
      px      :     0.021250
      py      :     0.021442
  5 H s       :     0.722903  s :     0.722903
      pz      :     0.040301  p :     0.181887
      px      :     0.054137
      py      :     0.087449
  6 H s       :     0.775532  s :     0.775532
      pz      :     0.036561  p :     0.108275
      px      :     0.033241
      py      :     0.038472
  7 H s       :     0.720596  s :     0.720596
      pz      :     0.062263  p :     0.146562
      px      :     0.056413
      py      :     0.027886
  8 Pbs       :     2.536748  s :     2.536748
      pz      :     2.074384  p :     6.572637
      px      :     2.132189
      py      :     2.366063
      dz2     :     1.482301  d :     7.466651
      dxz     :     1.544521
      dyz     :     1.314017
      dx2y2   :     1.532683
      dxy     :     1.593129
      f0      :     0.165514  f :     1.300122
      f+1     :     0.172407
      f-1     :     0.060088
      f+2     :     0.213961
      f-2     :     0.109954
      f+3     :     0.251775
      f-3     :     0.326424
  9 Cls       :     4.908626  s :     4.908626
      pz      :     3.543508  p :    10.773737
      px      :     3.646759
      py      :     3.583470
      dz2     :     0.781842  d :     4.302464
      dxz     :     0.939384
      dyz     :     0.738109
      dx2y2   :     0.868796
      dxy     :     0.974334
      f0      :     0.105347  f :     1.069122
      f+1     :     0.177291
      f-1     :     0.049197
      f+2     :     0.161817
      f-2     :     0.140008
      f+3     :     0.218474
      f-3     :     0.216989
 10 Cls       :     5.762894  s :     5.762894
      pz      :     3.827386  p :    11.445682
      px      :     3.857747
      py      :     3.760550
      dz2     :     0.013846  d :     0.091638
      dxz     :     0.014173
      dyz     :     0.016544
      dx2y2   :     0.028164
      dxy     :     0.018911
      f0      :     0.000557  f :     0.005775
      f+1     :     0.000718
      f-1     :     0.000817
      f+2     :     0.000865
      f-2     :     0.000484
      f+3     :     0.000782
      f-3     :     0.001552
 11 Cls       :     5.755438  s :     5.755438
      pz      :     3.742395  p :    11.380478
      px      :     3.876262
      py      :     3.761820
      dz2     :     0.031647  d :     0.093154
      dxz     :     0.018253
      dyz     :     0.014412
      dx2y2   :     0.014685
      dxy     :     0.014156
      f0      :     0.001677  f :     0.006247
      f+1     :     0.000981
      f-1     :     0.000917
      f+2     :     0.000509
      f-2     :     0.000527
      f+3     :     0.001056
      f-3     :     0.000580


                      *****************************
                      * MAYER POPULATION ANALYSIS *
                      *****************************

  NA   - Mulliken gross atomic population
  ZA   - Total nuclear charge
  QA   - Mulliken gross atomic charge
  VA   - Mayer's total valence
  BVA  - Mayer's bonded valence
  FA   - Mayer's free valence

  ATOM       NA         ZA         QA         VA         BVA        FA
  0 C      6.2732     6.0000    -0.2732     3.8889     3.7738     0.1150
  1 N      7.2831     7.0000    -0.2831     3.2633     3.1149     0.1484
  2 H      0.8409     1.0000     0.1591     0.9654     0.9471     0.0183
  3 H      0.8360     1.0000     0.1640     0.9648     0.9466     0.0183
  4 H      0.8433     1.0000     0.1567     0.9636     0.9453     0.0183
  5 H      0.7095     1.0000     0.2905     1.0040     0.9837     0.0203
  6 H      0.8494     1.0000     0.1506     1.1227     1.1056     0.0171
  7 H      0.7110     1.0000     0.2890     0.9868     0.9669     0.0199
  8 Pb    24.1004    22.0000    -2.1004    -3.4495    -3.7809     0.3314
  9 Cl    14.3443    17.0000     2.6557    -5.1332    -5.2925     0.1593
 10 Cl    17.6280    17.0000    -0.6280     0.8978     0.6414     0.2564
 11 Cl    17.5809    17.0000    -0.5809     1.0137     0.7556     0.2581

  Mayer bond orders larger than 0.1
B(  0-C ,  1-N ) :   0.8891 B(  0-C ,  2-H ) :   0.9524 B(  0-C ,  3-H ) :   0.9537 
B(  0-C ,  4-H ) :   0.9529 B(  1-N ,  5-H ) :   0.7237 B(  1-N ,  6-H ) :   0.8241 
B(  1-N ,  7-H ) :   0.7782 B(  1-N ,  8-Pb) :  -0.1191 B(  5-H , 11-Cl) :   0.2245 
B(  6-H ,  8-Pb) :   0.3752 B(  6-H ,  9-Cl) :  -0.1197 B(  7-H , 10-Cl) :   0.1608 
B(  8-Pb,  9-Cl) :  -5.1302 B(  8-Pb, 10-Cl) :   0.4968 B(  8-Pb, 11-Cl) :   0.5393 



-------
TIMINGS
-------

Total time                : 1326.462 sec
Integral trafo            :    2.898 sec (  0.2%)
I/O of integrals          :    0.111 sec (  0.0%)
K(i,j) Operators          :   10.263 sec (  0.8%)
T(i,j) pair energies      :    1.454 sec (  0.1%)
V-calculation             :    0.013 sec (  0.0%)
V**(-1/2)                 :    0.046 sec (  0.0%)
Gamma(ia|P)               :    9.972 sec (  0.8%)
Gamma-Trafo               :    1.326 sec (  0.1%)
D(virtual)                :    4.424 sec (  0.3%)
D(internal)               :    4.343 sec (  0.3%)
W(virtual)                :    8.851 sec (  0.7%)
W(internal)               :   14.490 sec (  1.1%)
L(virtual)                :    6.260 sec (  0.5%)
L(internal)               :    0.216 sec (  0.0%)
G(D)                      :   19.519 sec (  1.5%)
G(Z)                      :   20.250 sec (  1.5%)
Z-Vector Solution         : 1055.741 sec ( 79.6%)
Z-Vector Solution         : 1055.741 sec ( 79.6%)
3-Index Derivative 
+ Separable RIJ part      :    5.708 sec (  0.4%)
2-Index Derivative 
+ Separable RIJ part      :    0.044 sec (  0.0%)
Separable Gradient (COSX) :  157.452 sec ( 11.9%)


---------------------------------------
MP2 TOTAL ENERGY:    -1557.678230570 Eh
---------------------------------------

The final MP2 gradient
  0:  -0.00328847   0.00178651   0.00257664
  1:  -0.01523945  -0.02052430   0.00456515
  2:   0.00262389  -0.00242036   0.00219044
  3:  -0.00213660   0.00323993   0.00302682
  4:   0.00211054   0.00170742  -0.00341859
  5:  -0.00553957  -0.00156787  -0.00109328
  6:   0.00188973  -0.00959856  -0.00919413
  7:  -0.00286202  -0.00082343  -0.00043431
  8: 334.49915343 117.42321038 -102.57662281
  9: -334.49234120 -117.37956814 102.58992004
 10:   0.01295530  -0.04033783   0.01630471
 11:   0.00501603   0.02657758  -0.02829776

-----------------------------------
NORM OF THE MP2 GRADIENT: 521.907696
-----------------------------------

Entering the calculation of the dispersion correction...

Checking the input atom types...

Done


-------------------------------------------------------------------------------
                          DFT DISPERSION CORRECTION                            
                                                                               
                                DFTD3 V2.1  Rev 6                               
                          USING Becke-Johnson damping                          
-------------------------------------------------------------------------------
The B2PLYP functional is recognized
Active option DFTDOPT                   ...         4   

molecular C6(AA) [au] = 4869.968087 


            DFT-D V3
 parameters
 s6 scaling factor         :     0.6400 
 a1 scaling factor         :     0.3065 
 s8 scaling factor         :     0.9147 
 a2 scaling factor         :     5.0570 
 ad hoc parameters k1-k3   :    16.0000     1.3333    -4.0000 

 Edisp/kcal,au: -9.475466762215  -0.015100115844 
 E6   /kcal   :  -4.326450022 
 E8   /kcal   :  -5.149016740 
 % E8         :  54.340507646 

-------------------------   ----------------
Dispersion correction           -0.015100116
-------------------------   ----------------


-------------------------   --------------------
FINAL SINGLE POINT ENERGY     -1557.693330685644
-------------------------   --------------------


                            ***************************************
                            *     ORCA property calculations      *
                            ***************************************


  WARNING: The energy has been calculated at the MP2 level but the densities
           used in the property calculations are still SCF densities
           MP2 response densities have not been calculated 
           use %mp2 Density relaxed end
           or  %mp2 Density unrelaxed end

                                    ---------------------
                                    Active property flags
                                    ---------------------
   (+) Dipole Moment


------------------------------------------------------------------------------
                       ORCA ELECTRIC PROPERTIES CALCULATION
------------------------------------------------------------------------------

Dipole Moment Calculation                       ... on
Quadrupole Moment Calculation                   ... off
Polarizability Calculation                      ... off
GBWName                                         ... PbMACl3_mp2_7.orca.gbw
Electron density file                           ... PbMACl3_mp2_7.orca.scfp.tmp

-------------
DIPOLE MOMENT
-------------
                                X             Y             Z
Electronic contribution:    -44.44818     -97.80083     -74.44656
Nuclear contribution   :     46.22443      99.85676      75.48845
                        -----------------------------------------
Total Dipole Moment    :      1.77624       2.05593       1.04188
                        -----------------------------------------
Magnitude (a.u.)       :      2.90988
Magnitude (Debye)      :      7.39633


                         *** MP2 UNRELAXED DENSITY ***

------------------------------------------------------------------------------
                       ORCA ELECTRIC PROPERTIES CALCULATION
------------------------------------------------------------------------------

Dipole Moment Calculation                       ... on
Quadrupole Moment Calculation                   ... off
Polarizability Calculation                      ... off
GBWName                                         ... PbMACl3_mp2_7.orca.gbw
Electron density file                           ... PbMACl3_mp2_7.orca.pmp2ur

-------------
DIPOLE MOMENT
-------------
                                X             Y             Z
Electronic contribution:    -44.45289     -97.80413     -74.44511
Nuclear contribution   :     46.22443      99.85676      75.48845
                        -----------------------------------------
Total Dipole Moment    :      1.77154       2.05263       1.04333
                        -----------------------------------------
Magnitude (a.u.)       :      2.90520
Magnitude (Debye)      :      7.38443


                           *** MP2 RELAXED DENSITY ***

------------------------------------------------------------------------------
                       ORCA ELECTRIC PROPERTIES CALCULATION
------------------------------------------------------------------------------

Dipole Moment Calculation                       ... on
Quadrupole Moment Calculation                   ... off
Polarizability Calculation                      ... off
GBWName                                         ... PbMACl3_mp2_7.orca.gbw
Electron density file                           ... PbMACl3_mp2_7.orca.pmp2re

-------------
DIPOLE MOMENT
-------------
                                X             Y             Z
Electronic contribution:    -44.58193     -97.96183     -74.39901
Nuclear contribution   :     46.22443      99.85676      75.48845
                        -----------------------------------------
Total Dipole Moment    :      1.64249       1.89493       1.08944
                        -----------------------------------------
Magnitude (a.u.)       :      2.73412
Magnitude (Debye)      :      6.94959


Timings for individual modules:

Sum of individual times         ...     2505.126 sec (=  41.752 min)
GTO integral calculation        ...        0.969 sec (=   0.016 min)   0.0 %
SCF iterations                  ...     1176.309 sec (=  19.605 min)  47.0 %
MP2 module                      ...     1327.848 sec (=  22.131 min)  53.0 %
                             ****ORCA TERMINATED NORMALLY****
TOTAL RUN TIME: 0 days 0 hours 41 minutes 45 seconds 670 msec
