
                                 *****************
                                 * O   R   C   A *
                                 *****************

           --- An Ab Initio, DFT and Semiempirical electronic structure package ---

                  #######################################################
                  #                        -***-                        #
                  #  Department of molecular theory and spectroscopy    #
                  #              Directorship: Frank Neese              #
                  # Max Planck Institute for Chemical Energy Conversion #
                  #                  D-45470 Muelheim/Ruhr              #
                  #                       Germany                       #
                  #                                                     #
                  #                  All rights reserved                #
                  #                        -***-                        #
                  #######################################################


                         Program Version 3.0.3 - RELEASE   -


 With contributions from (in alphabetic order):
   Ute Becker             : Parallelization
   Dmytro Bykov           : SCF Hessian
   Dmitry Ganyushin       : Spin-Orbit,Spin-Spin,Magnetic field MRCI
   Andreas Hansen         : Spin unrestricted coupled pair/coupled cluster methods
   Dimitrios Liakos       : Extrapolation schemes; parallel MDCI
   Robert Izsak           : Overlap fitted RIJCOSX, COSX-SCS-MP3
   Christian Kollmar      : KDIIS, OOCD, Brueckner-CCSD(T), CCSD density
   Simone Kossmann        : Meta GGA functionals, TD-DFT gradient, OOMP2, MP2 Hessian
   Taras Petrenko         : DFT Hessian,TD-DFT gradient, ASA and ECA modules, normal mode analysis, Resonance Raman, ABS, FL, XAS/XES, NRVS
   Christoph Reimann      : Effective Core Potentials
   Michael Roemelt        : Restricted open shell CIS
   Christoph Riplinger    : Improved optimizer, TS searches, QM/MM, DLPNO-CCSD
   Barbara Sandhoefer     : DKH picture change effects
   Igor Schapiro          : Molecular dynamics
   Kantharuban Sivalingam : CASSCF convergence, NEVPT2
   Boris Wezisla          : Elementary symmetry handling
   Frank Wennmohs         : Technical directorship


 We gratefully acknowledge several colleagues who have allowed us to
 interface, adapt or use parts of their codes:
   Stefan Grimme, W. Hujo, H. Kruse, T. Risthaus : VdW corrections, initial TS optimization,
                                                   DFT functionals, gCP
   Ed Valeev                                     : LibInt (2-el integral package), F12 methods
   Garnet Chan, S. Sharma, R. Olivares           : DMRG
   Ulf Ekstrom                                   : XCFun DFT Library
   Mihaly Kallay                                 : mrcc  (arbitrary order and MRCC methods)
   Andreas Klamt, Michael Diedenhofen            : otool_cosmo (COSMO solvation model)
   Frank Weinhold                                : gennbo (NPA and NBO analysis)
   Christopher J. Cramer and Donald G. Truhlar   : smd solvation model


 Your calculation uses the libint2 library for the computation of 2-el integrals
 For citations please refer to: http://libint.valeyev.net

 This ORCA versions uses:
   CBLAS   interface :  Fast vector & matrix operations
   LAPACKE interface :  Fast linear algebra routines
   SCALAPACK package :  Parallel linear algebra routines


Your calculation utilizes the basis: Ahlrichs-TZV
Cite in your paper:
H - Kr: A. Schaefer, H. Horn and R. Ahlrichs, J. Chem. Phys. 97, 2571 (1992).

The def2-TZV basis will be loaded
Cite in your paper:
 	F. Weigend, R. Ahlrichs, Phys. Chem. Chem. Phys. 2005, 7, 3297.

Your calculation utilizes the atom-pairwise dispersion correction
with the Becke-Johnson damping scheme (D3BJ)
Cite in your paper:
S.Grimme, S.Ehrlich, L.Goerigk, J Comput Chem, (2011), 32, 1456–1465 
S.Grimme, J.Antony, S.Ehrlich and H.Krieg, J.Chem.Phys., 132, (2010), 154104 
   

================================================================================
                                        WARNINGS
                       Please study these warnings very carefully!
================================================================================

WARNING: The RI method has been chosen with no auxiliary basis (AUX or GTOAUX in BASIS block)
        Standard TZV/J expansion basis used (GTOAUX=TZV_J)

Now building the actual basis set
cite the ECPs for Pb [SD(60,MDF)] as follows:
  B. Metz, H. Stoll, M. Dolg, J. Chem. Phys. 113, 2563 (2000).

ECP parameters for Pb [SD(60,MDF)] have been obtained from:
  pseudopotential library of the Stuttgart/Cologne group
  http://www.theochem.uni-stuttgart.de/pseudopotentials/

cite the ECP basis sets for Pb [DEF2-TZVP] as follows:
  F. Weigend, R. Ahlrichs; Phys. Chem. Chem. Phys. 7, 3297(2005).

ECP basis sets for Pb [DEF2-TZVP] have been obtained from:
  Turbomole basis set library
  ftp://ftp.chemie.uni-karlsruhe.de/pub/basen/



INFO   : the flag for use of LIBINT has been found!

================================================================================
                                       INPUT FILE
================================================================================
NAME = PbCl6NH3CH3-2_mp2_sp_0.orca
|  1> ! RIJCOSX RI-B2PLYP D3BJ def2-TZVP ECP{def2-TZVP} TIGHTSCF Grid5 FinalGrid6 MORead
|  2> %method
|  3>  RunTyp Gradient
|  4>  end
|  5> %maxcore 1000
|  6> %moinp "previous.gbw"
|  7> *xyz -2 1
|  8> C 2.821971 3.493173 2.716929 
|  9> N 2.031893 2.485380 2.005967 
| 10> H 3.493737 3.003675 3.431461 
| 11> H 2.156449 4.174155 3.259759 
| 12> H 3.419280 4.070497 2.001994 
| 13> H 1.424368 1.881241 2.639320 
| 14> H 2.617127 1.787701 1.451958 
| 15> H 1.353302 2.890520 1.291746 
| 16> Pb 0.083846 -0.020590 0.203829 
| 17> Cl 3.143850 0.268085 0.275613 
| 18> Cl -0.027562 3.047476 -0.120885 
| 19> Cl 0.133282 0.490303 3.256386 
| 20> Cl -3.003176 -0.305225 0.156770 
| 21> Cl 0.015600 -0.536861 -2.834285 
| 22> Cl 0.182442 -3.094847 0.547449 
| 23> N -1.884966 -2.527607 -1.578982 
| 24> C -2.664881 -3.549172 -2.281400 
| 25> H -2.474954 -1.829497 -1.031708 
| 26> H -1.279571 -1.925402 -2.215561 
| 27> H -3.259633 -4.123288 -1.561779 
| 28> H -1.991792 -4.230944 -2.813775 
| 29> H -3.338231 -3.073756 -3.003955 
| 30> H -1.204879 -2.923566 -0.859634 
| 31> *
| 32> 
| 33>                          ****END OF INPUT****
================================================================================

                     *******************************
                     * Energy+Gradient Calculation *
                     *******************************

---------------------------------
CARTESIAN COORDINATES (ANGSTROEM)
---------------------------------
  C      2.821971    3.493173    2.716929
  N      2.031893    2.485380    2.005967
  H      3.493737    3.003675    3.431461
  H      2.156449    4.174155    3.259759
  H      3.419280    4.070497    2.001994
  H      1.424368    1.881241    2.639320
  H      2.617127    1.787701    1.451958
  H      1.353302    2.890520    1.291746
  Pb     0.083846   -0.020590    0.203829
  Cl     3.143850    0.268085    0.275613
  Cl    -0.027562    3.047476   -0.120885
  Cl     0.133282    0.490303    3.256386
  Cl    -3.003176   -0.305225    0.156770
  Cl     0.015600   -0.536861   -2.834285
  Cl     0.182442   -3.094847    0.547449
  N     -1.884966   -2.527607   -1.578982
  C     -2.664881   -3.549172   -2.281400
  H     -2.474954   -1.829497   -1.031708
  H     -1.279571   -1.925402   -2.215561
  H     -3.259633   -4.123288   -1.561779
  H     -1.991792   -4.230944   -2.813775
  H     -3.338231   -3.073756   -3.003955
  H     -1.204879   -2.923566   -0.859634

----------------------------
CARTESIAN COORDINATES (A.U.)
----------------------------
  NO LB      ZA    FRAG    MASS        X           Y           Z
   0 C     6.0000    0    12.011          5.332752347867888          6.601140308408101          5.134251735308532
   1 N     7.0000    0    14.007          3.839721303431654          4.696687538725200          3.790728263683611
   2 H     1.0000    0     1.008          6.602206113947632          5.676123145305915          6.484521529231552
   3 H     1.0000    0     1.008          4.075098031768349          7.888009790538062          6.160051772585005
   4 H     1.0000    0     1.008          6.461502775194258          7.692124558948052          3.783220381753542
   5 H     1.0000    0     1.008          2.691665433921146          3.555030281904149          4.987591979781038
   6 H     1.0000    0     1.008          4.945653287690924          3.378265299337155          2.743802977956033
   7 H     1.0000    0     1.008          2.557370156487898          5.462291184622056          2.441046174588241
   8 Pb   22.0000*   0   207.200  0.158445977424761  -0.038909461097439  0.385180988151035
   9 Cl   17.0000    0    35.453          5.941015506128327          0.506607230612279          0.520833088948438
  10 Cl   17.0000    0    35.453         -0.052084631703138          5.758895039697800         -0.228439543699071
  11 Cl   17.0000    0    35.453          0.251866478581292          0.926538392639991          6.153677726335289
  12 Cl   17.0000    0    35.453         -5.675180171965089         -0.576791659226114          0.296252366014835
  13 Cl   17.0000    0    35.453          0.029479727689172         -1.014520261983097         -5.356022435480995
  14 Cl   17.0000    0    35.453          0.344765415324861         -5.848413256387784          1.034528682289055
  15 N     7.0000    0    14.007         -3.562069511753006         -4.776485004182294         -2.983843550391246
  16 C     6.0000    0    12.011         -5.035895269490199         -6.706963082181557         -4.311221201927943
  17 H     1.0000    0     1.008         -4.676985254052937         -3.457248292830528         -1.949645570175627
  18 H     1.0000    0     1.008         -2.418038758907750         -3.638482477704246         -4.186803522996702
  19 H     1.0000    0     1.008         -6.159813667092132         -7.791885091283890         -2.951334591709398
  20 H     1.0000    0     1.008         -3.763941395735278         -7.995325447957316         -5.317264152474270
  21 H     1.0000    0     1.008         -6.308342361766074         -5.808557042497251         -5.676652268623413
  22 H     1.0000    0     1.008         -2.276891334512904         -5.524739074443619         -1.624472835407261
* core charge reduced due to ECP

--------------------------------
INTERNAL COORDINATES (ANGSTROEM)
--------------------------------
 C      0   0   0   0.000000     0.000     0.000
 N      1   0   0   1.464697     0.000     0.000
 H      1   2   0   1.096099   109.861     0.000
 H      1   2   3   1.096048   109.899   239.985
 H      1   2   3   1.095999   109.864   119.972
 H      2   1   3   1.065461   114.153    59.908
 H      2   1   3   1.065918   113.984   299.878
 H      2   1   3   1.065240   114.041   179.989
 Pb     7   2   1   3.353395    97.564   180.460
 Cl     7   2   1   1.992601   162.015   180.782
 Cl     8   2   1   1.981653   162.171   179.090
 Cl     6   2   1   1.995591   161.429   180.091
 Cl     9   7   2   3.100474   143.834   359.382
 Cl     9   7   2   3.082423   118.287   128.833
 Cl     9   7   2   3.094972   118.050   231.213
 N     15   9   7   3.019544    73.346   195.988
 C     16  15   9   1.464668   124.840   180.052
 H     16  15   9   1.065341    98.077   307.030
 H     16  15   9   1.065076    97.929    53.054
 H     17  16  15   1.095990   109.842    60.244
 H     17  16  15   1.096031   109.864   300.293
 H     17  16  15   1.096132   109.921   180.255
 H     16  15   9   1.066191    11.000   180.635

---------------------------
INTERNAL COORDINATES (A.U.)
---------------------------
 C      0   0   0   0.000000     0.000     0.000
 N      1   0   0   2.767876     0.000     0.000
 H      1   2   0   2.071328   109.861     0.000
 H      1   2   3   2.071230   109.899   239.985
 H      1   2   3   2.071137   109.864   119.972
 H      2   1   3   2.013429   114.153    59.908
 H      2   1   3   2.014293   113.984   299.878
 H      2   1   3   2.013011   114.041   179.989
 Pb     7   2   1   6.336997    97.564   180.460
 Cl     7   2   1   3.765470   162.015   180.782
 Cl     8   2   1   3.744781   162.171   179.090
 Cl     6   2   1   3.771120   161.429   180.091
 Cl     9   7   2   5.859046   143.834   359.382
 Cl     9   7   2   5.824935   118.287   128.833
 Cl     9   7   2   5.848650   118.050   231.213
 N     15   9   7   5.706111    73.346   195.988
 C     16  15   9   2.767822   124.840   180.052
 H     16  15   9   2.013203    98.077   307.030
 H     16  15   9   2.012702    97.929    53.054
 H     17  16  15   2.071120   109.842    60.244
 H     17  16  15   2.071199   109.864   300.293
 H     17  16  15   2.071390   109.921   180.255
 H     16  15   9   2.014809    11.000   180.635

---------------------
BASIS SET INFORMATION
---------------------
There are 5 groups of distinct atoms

 Group   1 Type C   : 11s6p2d1f contracted to 5s3p2d1f pattern {62111/411/11/1}
 Group   2 Type N   : 11s6p2d1f contracted to 5s3p2d1f pattern {62111/411/11/1}
 Group   3 Type H   : 5s1p contracted to 3s1p pattern {311/1}
 Group   4 Type Pb  : 10s9p8d2f contracted to 6s5p3d2f pattern {421111/33111/611/11}
 Group   5 Type Cl  : 14s9p3d1f contracted to 5s5p2d1f pattern {73211/51111/21/1}

Atom   0C    basis set group =>   1
Atom   1N    basis set group =>   2
Atom   2H    basis set group =>   3
Atom   3H    basis set group =>   3
Atom   4H    basis set group =>   3
Atom   5H    basis set group =>   3
Atom   6H    basis set group =>   3
Atom   7H    basis set group =>   3
Atom   8Pb   basis set group =>   4
Atom   9Cl   basis set group =>   5
Atom  10Cl   basis set group =>   5
Atom  11Cl   basis set group =>   5
Atom  12Cl   basis set group =>   5
Atom  13Cl   basis set group =>   5
Atom  14Cl   basis set group =>   5
Atom  15N    basis set group =>   2
Atom  16C    basis set group =>   1
Atom  17H    basis set group =>   3
Atom  18H    basis set group =>   3
Atom  19H    basis set group =>   3
Atom  20H    basis set group =>   3
Atom  21H    basis set group =>   3
Atom  22H    basis set group =>   3
-------------------------------
AUXILIARY BASIS SET INFORMATION
-------------------------------
There are 5 groups of distinct atoms

 Group   1 Type C   : 12s5p4d2f1g contracted to 6s4p3d1f1g pattern {711111/2111/211/2/1}
 Group   2 Type N   : 12s5p4d2f1g contracted to 6s4p3d1f1g pattern {711111/2111/211/2/1}
 Group   3 Type H   : 5s2p1d contracted to 3s1p1d pattern {311/2/1}
 Group   4 Type Pb  : 31s12p8d6f3g contracted to 31s12p8d6f3g pattern {1111111111111111111111111111111/111111111111/11111111/111111/111}
 Group   5 Type Cl  : 14s5p5d2f1g contracted to 8s4p3d1f1g pattern {71111111/2111/311/2/1}

Atom   0C    basis set group =>   1
Atom   1N    basis set group =>   2
Atom   2H    basis set group =>   3
Atom   3H    basis set group =>   3
Atom   4H    basis set group =>   3
Atom   5H    basis set group =>   3
Atom   6H    basis set group =>   3
Atom   7H    basis set group =>   3
Atom   8Pb   basis set group =>   4
Atom   9Cl   basis set group =>   5
Atom  10Cl   basis set group =>   5
Atom  11Cl   basis set group =>   5
Atom  12Cl   basis set group =>   5
Atom  13Cl   basis set group =>   5
Atom  14Cl   basis set group =>   5
Atom  15N    basis set group =>   2
Atom  16C    basis set group =>   1
Atom  17H    basis set group =>   3
Atom  18H    basis set group =>   3
Atom  19H    basis set group =>   3
Atom  20H    basis set group =>   3
Atom  21H    basis set group =>   3
Atom  22H    basis set group =>   3

-------------------------
ECP PARAMETER INFORMATION
-------------------------

 Group 1, Type Pb ECP SD(60,MDF) (replacing 60 core electrons, lmax=5)

Atom   8Pb   ECP group =>   1


------------------------------------------------------------------------------
                           ORCA GTO INTEGRAL CALCULATION
                           -- RI-GTO INTEGRALS CHOSEN --
------------------------------------------------------------------------------

                         BASIS SET STATISTICS AND STARTUP INFO

Gaussian basis set:
 # of primitive gaussian shells          ...  343
 # of primitive gaussian functions       ...  749
 # of contracted shells                  ...  186
 # of contracted basis functions         ...  468
 Highest angular momentum                ...    3
 Maximum contraction depth               ...    7
Auxiliary gaussian basis set:
 # of primitive gaussian shells          ...  414
 # of primitive gaussian functions       ... 1110
 # of contracted shells                  ...  282
 # of contracted aux-basis functions     ...  810
 Highest angular momentum                ...    4
 Maximum contraction depth               ...    7
Ratio of auxiliary to basis functions    ...  1.73
Integral package used                  ... LIBINT
 One Electron integrals                  
   ECP integrals                         ... done
 Ordering auxiliary basis shells         ... done
 Integral threshhold             Thresh  ...  2.500e-11
 Primitive cut-off               TCut    ...  2.500e-12
 Pre-screening matrix                    ... done
 Shell pair data                         ... 
 Ordering of the shell pairs             ... done (   0.002 sec) 11351 of 17391 pairs
 Determination of significant pairs      ... done (   0.000 sec)
 Creation of shell pair data             ... done (   0.004 sec)
 Storage of shell pair data              ... done (   0.002 sec)
 Shell pair data done in (   0.008 sec)
 Computing two index integrals           ... done
 Cholesky decomposition of the V-matrix  ... done


Timings:
 Total evaluation time                   ...   1.266 sec (  0.021 min)
 One electron matrix time                ...   0.730 sec (  0.012 min) = 57.7%
 Schwartz matrix evaluation time         ...   0.452 sec (  0.008 min) = 35.7%
 Two index repulsion integral time       ...   0.025 sec (  0.000 min) =  2.0%
 Cholesky decomposition of V             ...   0.024 sec (  0.000 min) =  1.9%
 Three index repulsion integral time     ...   0.000 sec (  0.000 min) =  0.0%

-------------------------------------------------------------------------------
                                 ORCA SCF
-------------------------------------------------------------------------------

------------
SCF SETTINGS
------------
Hamiltonian:
 Density Functional     Method          .... DFT(GTOs)
 Exchange Functional    Exchange        .... B88
   X-Alpha parameter    XAlpha          ....  0.666667
   Becke's b parameter  XBeta           ....  0.004200
 Correlation Functional Correlation     .... LYP
 LDA part of GGA corr.  LDAOpt          .... VWN-3
 Gradients option       PostSCFGGA      .... off
 Hybrid DFT is turned on
   Fraction HF Exchange ScalHFX         ....  0.530000
   Scaling of DF-GGA-X  ScalDFX         ....  0.470000
   Scaling of DF-GGA-C  ScalDFC         ....  0.730000
   Scaling of DF-LDA-C  ScalLDAC        ....  0.730000
   Perturbative correction              ....  0.270000
 RI-approximation to the Coulomb term is turned on
   Number of auxiliary basis functions  .... 810
   RIJ-COSX (HFX calculated with COS-X)).... on


General Settings:
 Integral files         IntName         .... PbCl6NH3CH3-2_mp2_sp_0.orca
 Hartree-Fock type      HFTyp           .... RHF
 Total Charge           Charge          ....   -2
 Multiplicity           Mult            ....    1
 Number of Electrons    NEL             ....  164
 Basis Dimension        Dim             ....  468
 Nuclear Repulsion      ENuc            ....   1558.1133101585 Eh

Convergence Acceleration:
 DIIS                   CNVDIIS         .... on
   Start iteration      DIISMaxIt       ....    12
   Startup error        DIISStart       ....  0.200000
   # of expansion vecs  DIISMaxEq       ....     5
   Bias factor          DIISBfac        ....   1.050
   Max. coefficient     DIISMaxC        ....  10.000
 Newton-Raphson         CNVNR           .... off
 SOSCF                  CNVSOSCF        .... on
   Start iteration      SOSCFMaxIt      ....   150
   Startup grad/error   SOSCFStart      ....  0.003300
 Level Shifting         CNVShift        .... on
   Level shift para.    LevelShift      ....    0.2500
   Turn off err/grad.   ShiftErr        ....    0.0010
 Zerner damping         CNVZerner       .... off
 Static damping         CNVDamp         .... on
   Fraction old density DampFac         ....    0.7000
   Max. Damping (<1)    DampMax         ....    0.9800
   Min. Damping (>=0)   DampMin         ....    0.0000
   Turn off err/grad.   DampErr         ....    0.1000
 Fernandez-Rico         CNVRico         .... off

SCF Procedure:
 Maximum # iterations   MaxIter         ....   125
 SCF integral mode      SCFMode         .... Direct
   Integral package                     .... LIBINT
 Reset frequeny         DirectResetFreq ....    20
 Integral Threshold     Thresh          ....  2.500e-11 Eh
 Primitive CutOff       TCut            ....  2.500e-12 Eh

Convergence Tolerance:
 Convergence Check Mode ConvCheckMode   .... Total+1el-Energy
 Energy Change          TolE            ....  1.000e-08 Eh
 1-El. energy change                    ....  1.000e-05 Eh
 Orbital Gradient       TolG            ....  1.000e-05
 Orbital Rotation angle TolX            ....  1.000e-05
 DIIS Error             TolErr          ....  5.000e-07


Diagonalization of the overlap matrix:
Smallest eigenvalue                        ... 1.084e-03
Time for diagonalization                   ...    0.082 sec
Threshold for overlap eigenvalues          ... 1.000e-08
Number of eigenvalues below threshold      ... 0
Time for construction of square roots      ...    0.031 sec
Total time needed                          ...    0.113 sec

---------------------
INITIAL GUESS: MOREAD
---------------------
Guess MOs are being read from file: previous.gbw
Input geometry compatible with but different from current geometry
Input basis set matches current basis set (good)
MOs were renormalized
MOs were reorthogonalized (Schmidt)
                      ------------------
                      INITIAL GUESS DONE (   0.8 sec)
                      ------------------
-------------------
DFT GRID GENERATION
-------------------

General Integration Accuracy     IntAcc      ...  5.010
Radial Grid Type                 RadialGrid  ... Gauss-Chebyshev
Angular Grid (max. acc.)         AngularGrid ... Lebedev-434
Angular grid pruning method      GridPruning ... 3 (G Style)
Weight generation scheme         WeightScheme... Becke
Basis function cutoff            BFCut       ...    1.0000e-11
Integration weight cutoff        WCut        ...    1.0000e-14
Grids for H and He will be reduced by one unit

# of grid points (after initial pruning)     ... 212974 (   0.1 sec)
# of grid points (after weights+screening)   ... 195994 (   1.1 sec)
nearest neighbour list constructed           ...    0.0 sec
Grid point re-assignment to atoms done       ...    0.1 sec
Grid point division into batches done        ...    1.6 sec
Reduced shell lists constructed in    7.5 sec

Total number of grid points                  ...   195994
Total number of batches                      ...     3077
Average number of points per batch           ...       63
Average number of grid points per atom       ...     8521
Average number of shells per batch           ...    68.15 (36.64%)
Average number of basis functions per batch  ...   172.60 (36.88%)
Average number of large shells per batch     ...    46.16 (67.73%)
Average number of large basis fcns per batch ...   115.63 (66.99%)
Maximum spatial batch extension              ...  30.33, 27.92, 30.33 au
Average spatial batch extension              ...   2.10,  2.06,  2.09 au

Time for grid setup =    8.760 sec

--------------------
COSX GRID GENERATION
--------------------

General Integration Accuracy     IntAcc      ...  3.340
Radial Grid Type                 RadialGrid  ... Gauss-Chebyshev
Angular Grid (max. acc.)         AngularGrid ... Lebedev-50
Angular grid pruning method      GridPruning ... 3 (G Style)
Weight generation scheme         WeightScheme... Becke
Basis function cutoff            BFCut       ...    1.0000e-11
Integration weight cutoff        WCut        ...    1.0000e-14
Grids for H and He will be reduced by one unit

# of grid points (after initial pruning)     ...  11762 (   0.0 sec)
# of grid points (after weights+screening)   ...  10910 (   0.1 sec)
nearest neighbour list constructed           ...    0.0 sec
Grid point re-assignment to atoms done       ...    0.0 sec
Grid point division into batches done        ...    0.0 sec
Reduced shell lists constructed in    0.4 sec

Total number of grid points                  ...    10910
Total number of batches                      ...      184
Average number of points per batch           ...       59
Average number of grid points per atom       ...      474
Average number of shells per batch           ...    86.65 (46.59%)
Average number of basis functions per batch  ...   224.56 (47.98%)
Average number of large shells per batch     ...    59.16 (68.27%)
Average number of large basis fcns per batch ...   150.57 (67.05%)
Maximum spatial batch extension              ...  24.59, 19.60, 22.99 au
Average spatial batch extension              ...   5.40,  5.06,  5.26 au

Overlap Fitting                  UseSFitting ... on
Constructing numerical overlap ... done (      0.2 sec)
Inverting numerical overlap    ... done (      0.0 sec)
Obtaining analytic overlap     ... done (      0.0 sec)
Final contraction and storage  ... done (      0.0 sec)


General Integration Accuracy     IntAcc      ...  3.670
Radial Grid Type                 RadialGrid  ... Gauss-Chebyshev
Angular Grid (max. acc.)         AngularGrid ... Lebedev-50
Angular grid pruning method      GridPruning ... 3 (G Style)
Weight generation scheme         WeightScheme... Becke
Basis function cutoff            BFCut       ...    1.0000e-11
Integration weight cutoff        WCut        ...    1.0000e-14
Grids for H and He will be reduced by one unit

# of grid points (after initial pruning)     ...  14690 (   0.0 sec)
# of grid points (after weights+screening)   ...  13603 (   0.1 sec)
nearest neighbour list constructed           ...    0.0 sec
Grid point re-assignment to atoms done       ...    0.0 sec
Grid point division into batches done        ...    0.0 sec
Reduced shell lists constructed in    0.5 sec

Total number of grid points                  ...    13603
Total number of batches                      ...      222
Average number of points per batch           ...       61
Average number of grid points per atom       ...      591
Average number of shells per batch           ...    84.40 (45.38%)
Average number of basis functions per batch  ...   218.08 (46.60%)
Average number of large shells per batch     ...    57.55 (68.19%)
Average number of large basis fcns per batch ...   145.47 (66.71%)
Maximum spatial batch extension              ...  25.30, 19.82, 23.87 au
Average spatial batch extension              ...   5.05,  4.72,  5.01 au

Overlap Fitting                  UseSFitting ... on
Constructing numerical overlap ... done (      0.3 sec)
Inverting numerical overlap    ... done (      0.0 sec)
Obtaining analytic overlap     ... done (      0.0 sec)
Final contraction and storage  ... done (      0.0 sec)


General Integration Accuracy     IntAcc      ...  4.010
Radial Grid Type                 RadialGrid  ... Gauss-Chebyshev
Angular Grid (max. acc.)         AngularGrid ... Lebedev-110
Angular grid pruning method      GridPruning ... 3 (G Style)
Weight generation scheme         WeightScheme... Becke
Basis function cutoff            BFCut       ...    1.0000e-11
Integration weight cutoff        WCut        ...    1.0000e-14
Grids for H and He will be reduced by one unit

# of grid points (after initial pruning)     ...  27082 (   0.0 sec)
# of grid points (after weights+screening)   ...  25302 (   0.1 sec)
nearest neighbour list constructed           ...    0.0 sec
Grid point re-assignment to atoms done       ...    0.0 sec
Grid point division into batches done        ...    0.0 sec
Reduced shell lists constructed in    0.9 sec

Total number of grid points                  ...    25302
Total number of batches                      ...      408
Average number of points per batch           ...       62
Average number of grid points per atom       ...     1100
Average number of shells per batch           ...    80.11 (43.07%)
Average number of basis functions per batch  ...   205.98 (44.01%)
Average number of large shells per batch     ...    54.59 (68.14%)
Average number of large basis fcns per batch ...   138.54 (67.26%)
Maximum spatial batch extension              ...  28.53, 26.38, 26.43 au
Average spatial batch extension              ...   4.25,  4.06,  4.10 au

Overlap Fitting                  UseSFitting ... on
Constructing numerical overlap ... done (      0.5 sec)
Inverting numerical overlap    ... done (      0.0 sec)
Obtaining analytic overlap     ... done (      0.0 sec)
Final contraction and storage  ... done (      0.0 sec)

Time for X-Grid setup             =    3.447 sec
--------------
SCF ITERATIONS
--------------
ITER       Energy         Delta-E        Max-DP      RMS-DP      [F,P]     Damp
               ***  Starting incremental Fock matrix formation  ***
  0  -3145.5426317543   0.000000000000 0.00053215  0.00000633  0.0088848 0.7000
                      *** Initiating the SOSCF procedure ***
                      *** Re-Reading the Fockian *** 
                      *** Removing any level shift *** 
ITER      Energy       Delta-E        Grad      Rot      Max-DP    RMS-DP
  1  -3145.54263935  -0.0000075910  0.000152  0.000152  0.001628  0.000020
               *** Restarting incremental Fock matrix formation ***
  2  -3145.54266002  -0.0000206730  0.000173  0.000448  0.000461  0.000008
  3  -3145.54266197  -0.0000019475  0.000108  0.000121  0.000301  0.000004
  4  -3145.54266246  -0.0000004954  0.000033  0.000036  0.000090  0.000001
  5  -3145.54266248  -0.0000000170  0.000010  0.000008  0.000029  0.000000
                  ***Gradient check signals convergence***
              ***Rediagonalizing the Fockian in SOSCF/NRSCF***

               *****************************************************
               *                     SUCCESS                       *
               *           SCF CONVERGED AFTER   6 CYCLES          *
               *****************************************************

Old exchange energy                            =   -110.586428802 Eh
New exchange energy                            =   -110.594590517 Eh
Exchange energy change after final integration =     -0.008161715 Eh
Total energy after final integration           =  -3145.550824218 Eh
Final COS-X integration done in                =    62.899 sec

----------------
TOTAL SCF ENERGY
----------------

Total Energy       :        -3145.55082422 Eh          -85594.78948 eV

Components:
Nuclear Repulsion  :         1558.11331016 Eh           42398.41866 eV
Electronic Energy  :        -4703.66413438 Eh         -127993.20815 eV

One Electron Energy:        -7564.93028844 Eh         -205852.21847 eV
Two Electron Energy:         2861.26615406 Eh           77859.01033 eV

Virial components:
Potential Energy   :        -6157.92316667 Eh         -167565.60824 eV
Kinetic Energy     :         3012.37234245 Eh           81970.81875 eV
Virial Ratio       :            2.04421050


DFT components:
N(Alpha)           :       81.999975367870 electrons
N(Beta)            :       81.999975367870 electrons
N(Total)           :      163.999950735739 electrons
E(X)               :      -98.139382714799 Eh       
E(C)               :       -4.635284342368 Eh       
E(XC)              :     -102.774667057168 Eh       

---------------
SCF CONVERGENCE
---------------

  Last Energy change         ...   -2.5333e-08  Tolerance :   1.0000e-08
  Last MAX-Density change    ...    7.4829e-14  Tolerance :   1.0000e-07
  Last RMS-Density change    ...    4.5627e-16  Tolerance :   5.0000e-09
  Last Orbital Gradient      ...    1.7314e-06  Tolerance :   1.0000e-05
  Last Orbital Rotation      ...    3.1373e-06  Tolerance :   1.0000e-05

             **** THE GBW FILE WAS UPDATED (PbCl6NH3CH3-2_mp2_sp_0.orca.gbw) ****
             **** DENSITY FILE WAS UPDATED (PbCl6NH3CH3-2_mp2_sp_0.orca.scfp.tmp) ****
             **** ENERGY FILE WAS UPDATED (PbCl6NH3CH3-2_mp2_sp_0.orca.en.tmp) ****
----------------
ORBITAL ENERGIES
----------------

  NO   OCC          E(Eh)            E(eV) 
   0   2.0000    -102.582595     -2791.4143 
   1   2.0000    -102.581995     -2791.3980 
   2   2.0000    -102.581958     -2791.3970 
   3   2.0000    -102.581483     -2791.3841 
   4   2.0000    -102.580608     -2791.3603 
   5   2.0000    -102.580060     -2791.3453 
   6   2.0000     -14.691584      -399.7783 
   7   2.0000     -14.691067      -399.7643 
   8   2.0000     -10.490806      -285.4694 
   9   2.0000     -10.490706      -285.4666 
  10   2.0000      -9.589214      -260.9358 
  11   2.0000      -9.588595      -260.9189 
  12   2.0000      -9.588593      -260.9189 
  13   2.0000      -9.588094      -260.9053 
  14   2.0000      -9.587189      -260.8807 
  15   2.0000      -9.586610      -260.8649 
  16   2.0000      -7.225621      -196.6192 
  17   2.0000      -7.225399      -196.6131 
  18   2.0000      -7.225004      -196.6024 
  19   2.0000      -7.224999      -196.6022 
  20   2.0000      -7.224786      -196.5964 
  21   2.0000      -7.224777      -196.5962 
  22   2.0000      -7.224694      -196.5939 
  23   2.0000      -7.224490      -196.5884 
  24   2.0000      -7.224299      -196.5832 
  25   2.0000      -7.224082      -196.5773 
  26   2.0000      -7.224073      -196.5770 
  27   2.0000      -7.223592      -196.5639 
  28   2.0000      -7.223577      -196.5635 
  29   2.0000      -7.223382      -196.5582 
  30   2.0000      -7.223009      -196.5481 
  31   2.0000      -7.222808      -196.5426 
  32   2.0000      -7.222681      -196.5391 
  33   2.0000      -7.222107      -196.5235 
  34   2.0000      -5.563927      -151.4022 
  35   2.0000      -3.334473       -90.7356 
  36   2.0000      -3.333853       -90.7188 
  37   2.0000      -3.333786       -90.7169 
  38   2.0000      -0.879793       -23.9404 
  39   2.0000      -0.879565       -23.9342 
  40   2.0000      -0.722693       -19.6655 
  41   2.0000      -0.722517       -19.6607 
  42   2.0000      -0.721596       -19.6356 
  43   2.0000      -0.720255       -19.5991 
  44   2.0000      -0.720169       -19.5968 
  45   2.0000      -0.633805       -17.2467 
  46   2.0000      -0.633365       -17.2347 
  47   2.0000      -0.601075       -16.3561 
  48   2.0000      -0.600652       -16.3446 
  49   2.0000      -0.598295       -16.2804 
  50   2.0000      -0.597764       -16.2660 
  51   2.0000      -0.596238       -16.2245 
  52   2.0000      -0.593347       -16.1458 
  53   2.0000      -0.410626       -11.1737 
  54   2.0000      -0.410408       -11.1678 
  55   2.0000      -0.410354       -11.1663 
  56   2.0000      -0.410339       -11.1659 
  57   2.0000      -0.362837        -9.8733 
  58   2.0000      -0.362567        -9.8660 
  59   2.0000      -0.291621        -7.9354 
  60   2.0000      -0.290387        -7.9018 
  61   2.0000      -0.290302        -7.8995 
  62   2.0000      -0.290266        -7.8985 
  63   2.0000      -0.290227        -7.8975 
  64   2.0000      -0.114472        -3.1149 
  65   2.0000      -0.109049        -2.9674 
  66   2.0000      -0.108951        -2.9647 
  67   2.0000      -0.097531        -2.6539 
  68   2.0000      -0.089463        -2.4344 
  69   2.0000      -0.086393        -2.3509 
  70   2.0000      -0.086279        -2.3478 
  71   2.0000      -0.082463        -2.2439 
  72   2.0000      -0.082144        -2.2352 
  73   2.0000      -0.082015        -2.2318 
  74   2.0000      -0.081647        -2.2217 
  75   2.0000      -0.078957        -2.1485 
  76   2.0000      -0.078611        -2.1391 
  77   2.0000      -0.078145        -2.1264 
  78   2.0000      -0.077837        -2.1180 
  79   2.0000      -0.075527        -2.0552 
  80   2.0000      -0.071445        -1.9441 
  81   2.0000      -0.045525        -1.2388 
  82   0.0000       0.241207         6.5636 
  83   0.0000       0.241383         6.5684 
  84   0.0000       0.256778         6.9873 
  85   0.0000       0.258970         7.0469 
  86   0.0000       0.259377         7.0580 
  87   0.0000       0.306696         8.3456 
  88   0.0000       0.307532         8.3684 
  89   0.0000       0.307730         8.3738 
  90   0.0000       0.307944         8.3796 
  91   0.0000       0.308241         8.3877 
  92   0.0000       0.309649         8.4260 
  93   0.0000       0.376551        10.2465 
  94   0.0000       0.377473        10.2716 
  95   0.0000       0.379411        10.3243 
  96   0.0000       0.380683        10.3589 
  97   0.0000       0.413577        11.2540 
  98   0.0000       0.413729        11.2581 
  99   0.0000       0.414032        11.2664 
 100   0.0000       0.414185        11.2706 
 101   0.0000       0.443947        12.0804 
 102   0.0000       0.458111        12.4658 
 103   0.0000       0.491776        13.3819 
 104   0.0000       0.492125        13.3914 
 105   0.0000       0.494402        13.4534 
 106   0.0000       0.494948        13.4682 
 107   0.0000       0.505803        13.7636 
 108   0.0000       0.506706        13.7882 
 109   0.0000       0.518618        14.1123 
 110   0.0000       0.525161        14.2904 
 111   0.0000       0.525603        14.3024 
 112   0.0000       0.542365        14.7585 
 113   0.0000       0.550409        14.9774 
 114   0.0000       0.550855        14.9895 
 115   0.0000       0.589363        16.0374 
 116   0.0000       0.589937        16.0530 
 117   0.0000       0.592216        16.1150 
 118   0.0000       0.603206        16.4141 
 119   0.0000       0.616838        16.7850 
 120   0.0000       0.636406        17.3175 
 121   0.0000       0.637097        17.3363 
 122   0.0000       0.638474        17.3738 
 123   0.0000       0.661541        18.0014 
 124   0.0000       0.667529        18.1644 
 125   0.0000       0.668118        18.1804 
 126   0.0000       0.679118        18.4797 
 127   0.0000       0.681692        18.5498 
 128   0.0000       0.682846        18.5812 
 129   0.0000       0.683516        18.5994 
 130   0.0000       0.693985        18.8843 
 131   0.0000       0.694033        18.8856 
 132   0.0000       0.702116        19.1055 
 133   0.0000       0.711447        19.3595 
 134   0.0000       0.712306        19.3828 
 135   0.0000       0.726769        19.7764 
 136   0.0000       0.726849        19.7786 
 137   0.0000       0.734910        19.9979 
 138   0.0000       0.735468        20.0131 
 139   0.0000       0.742118        20.1940 
 140   0.0000       0.742180        20.1957 
 141   0.0000       0.746262        20.3068 
 142   0.0000       0.747051        20.3283 
 143   0.0000       0.748518        20.3682 
 144   0.0000       0.760995        20.7077 
 145   0.0000       0.762054        20.7365 
 146   0.0000       0.772406        21.0182 
 147   0.0000       0.773809        21.0564 
 148   0.0000       0.778292        21.1784 
 149   0.0000       0.781485        21.2653 
 150   0.0000       0.783301        21.3147 
 151   0.0000       0.805990        21.9321 
 152   0.0000       0.810934        22.0666 
 153   0.0000       0.811469        22.0812 
 154   0.0000       0.811606        22.0849 
 155   0.0000       0.811969        22.0948 
 156   0.0000       0.812568        22.1111 
 157   0.0000       0.812969        22.1220 
 158   0.0000       0.822565        22.3831 
 159   0.0000       0.823115        22.3981 
 160   0.0000       0.831386        22.6232 
 161   0.0000       0.839293        22.8383 
 162   0.0000       0.839578        22.8461 
 163   0.0000       0.841831        22.9074 
 164   0.0000       0.861315        23.4376 
 165   0.0000       0.862129        23.4597 
 166   0.0000       0.864443        23.5227 
 167   0.0000       0.893967        24.3261 
 168   0.0000       0.912212        24.8226 
 169   0.0000       0.926093        25.2003 
 170   0.0000       0.926789        25.2192 
 171   0.0000       0.930504        25.3203 
 172   0.0000       0.932062        25.3627 
 173   0.0000       0.955870        26.0105 
 174   0.0000       0.968718        26.3602 
 175   0.0000       0.972222        26.4555 
 176   0.0000       0.974131        26.5074 
 177   0.0000       0.975101        26.5338 
 178   0.0000       0.976777        26.5795 
 179   0.0000       0.984582        26.7918 
 180   0.0000       0.985520        26.8174 
 181   0.0000       1.005175        27.3522 
 182   0.0000       1.005499        27.3610 
 183   0.0000       1.022734        27.8300 
 184   0.0000       1.052319        28.6351 
 185   0.0000       1.055707        28.7273 
 186   0.0000       1.069754        29.1095 
 187   0.0000       1.070700        29.1352 
 188   0.0000       1.072598        29.1869 
 189   0.0000       1.074493        29.2384 
 190   0.0000       1.074989        29.2519 
 191   0.0000       1.076978        29.3061 
 192   0.0000       1.077696        29.3256 
 193   0.0000       1.124459        30.5981 
 194   0.0000       1.124783        30.6069 
 195   0.0000       1.147379        31.2218 
 196   0.0000       1.148828        31.2612 
 197   0.0000       1.150920        31.3181 
 198   0.0000       1.191358        32.4185 
 199   0.0000       1.194894        32.5147 
 200   0.0000       1.222380        33.2627 
 201   0.0000       1.227966        33.4147 
 202   0.0000       1.267393        34.4875 
 203   0.0000       1.315238        35.7894 
 204   0.0000       1.334537        36.3146 
 205   0.0000       1.336269        36.3617 
 206   0.0000       1.415503        38.5178 
 207   0.0000       1.416271        38.5387 
 208   0.0000       1.419040        38.6140 
 209   0.0000       1.419143        38.6168 
 210   0.0000       1.440784        39.2057 
 211   0.0000       1.441105        39.2145 
 212   0.0000       1.443392        39.2767 
 213   0.0000       1.461574        39.7714 
 214   0.0000       1.462060        39.7847 
 215   0.0000       1.530255        41.6404 
 216   0.0000       1.559245        42.4292 
 217   0.0000       1.561437        42.4889 
 218   0.0000       1.583813        43.0977 
 219   0.0000       1.676248        45.6130 
 220   0.0000       1.681091        45.7448 
 221   0.0000       1.689882        45.9840 
 222   0.0000       1.693313        46.0774 
 223   0.0000       1.706223        46.4287 
 224   0.0000       1.711894        46.5830 
 225   0.0000       1.776625        48.3444 
 226   0.0000       1.776633        48.3446 
 227   0.0000       1.820138        49.5285 
 228   0.0000       1.821141        49.5558 
 229   0.0000       1.828376        49.7526 
 230   0.0000       1.829525        49.7839 
 231   0.0000       1.847976        50.2860 
 232   0.0000       1.848590        50.3027 
 233   0.0000       1.849417        50.3252 
 234   0.0000       1.851349        50.3778 
 235   0.0000       1.977141        53.8008 
 236   0.0000       1.990754        54.1712 
 237   0.0000       2.026513        55.1442 
 238   0.0000       2.026783        55.1516 
 239   0.0000       2.027044        55.1587 
 240   0.0000       2.027564        55.1728 
 241   0.0000       2.119099        57.6636 
 242   0.0000       2.119471        57.6737 
 243   0.0000       2.124023        57.7976 
 244   0.0000       2.124189        57.8021 
 245   0.0000       2.159725        58.7691 
 246   0.0000       2.170093        59.0512 
 247   0.0000       2.170454        59.0610 
 248   0.0000       2.172850        59.1263 
 249   0.0000       2.176250        59.2188 
 250   0.0000       2.181512        59.3620 
 251   0.0000       2.182244        59.3819 
 252   0.0000       2.182506        59.3890 
 253   0.0000       2.183031        59.4033 
 254   0.0000       2.185381        59.4672 
 255   0.0000       2.214086        60.2484 
 256   0.0000       2.215318        60.2819 
 257   0.0000       2.225644        60.5628 
 258   0.0000       2.226003        60.5726 
 259   0.0000       2.226549        60.5875 
 260   0.0000       2.226954        60.5985 
 261   0.0000       2.238178        60.9039 
 262   0.0000       2.246468        61.1295 
 263   0.0000       2.247844        61.1670 
 264   0.0000       2.248415        61.1825 
 265   0.0000       2.255896        61.3860 
 266   0.0000       2.256412        61.4001 
 267   0.0000       2.271949        61.8229 
 268   0.0000       2.272809        61.8463 
 269   0.0000       2.288657        62.2775 
 270   0.0000       2.290570        62.3296 
 271   0.0000       2.299617        62.5758 
 272   0.0000       2.299871        62.5827 
 273   0.0000       2.300436        62.5980 
 274   0.0000       2.305591        62.7383 
 275   0.0000       2.357928        64.1625 
 276   0.0000       2.358022        64.1650 
 277   0.0000       2.369031        64.4646 
 278   0.0000       2.369478        64.4768 
 279   0.0000       2.372984        64.5722 
 280   0.0000       2.411290        65.6145 
 281   0.0000       2.413752        65.6815 
 282   0.0000       2.415863        65.7390 
 283   0.0000       2.422986        65.9328 
 284   0.0000       2.425608        66.0042 
 285   0.0000       2.427546        66.0569 
 286   0.0000       2.428897        66.0937 
 287   0.0000       2.453845        66.7725 
 288   0.0000       2.454240        66.7833 
 289   0.0000       2.454428        66.7884 
 290   0.0000       2.454697        66.7957 
 291   0.0000       2.456439        66.8431 
 292   0.0000       2.457056        66.8599 
 293   0.0000       2.464635        67.0661 
 294   0.0000       2.469197        67.1903 
 295   0.0000       2.491754        67.8041 
 296   0.0000       2.504631        68.1545 
 297   0.0000       2.507055        68.2204 
 298   0.0000       2.507632        68.2361 
 299   0.0000       2.510212        68.3063 
 300   0.0000       2.510649        68.3182 
 301   0.0000       2.514685        68.4281 
 302   0.0000       2.515245        68.4433 
 303   0.0000       2.517433        68.5028 
 304   0.0000       2.517506        68.5048 
 305   0.0000       2.517671        68.5093 
 306   0.0000       2.518921        68.5433 
 307   0.0000       2.519482        68.5586 
 308   0.0000       2.520638        68.5901 
 309   0.0000       2.532326        68.9081 
 310   0.0000       2.532617        68.9160 
 311   0.0000       2.532802        68.9210 
 312   0.0000       2.537042        69.0364 
 313   0.0000       2.537404        69.0463 
 314   0.0000       2.545950        69.2788 
 315   0.0000       2.546380        69.2905 
 316   0.0000       2.546883        69.3042 
 317   0.0000       2.553465        69.4833 
 318   0.0000       2.559199        69.6393 
 319   0.0000       2.559411        69.6451 
 320   0.0000       2.571776        69.9816 
 321   0.0000       2.571931        69.9858 
 322   0.0000       2.577473        70.1366 
 323   0.0000       2.577972        70.1502 
 324   0.0000       2.592682        70.5505 
 325   0.0000       2.593657        70.5770 
 326   0.0000       2.606520        70.9270 
 327   0.0000       2.615058        71.1593 
 328   0.0000       2.615652        71.1755 
 329   0.0000       2.620613        71.3105 
 330   0.0000       2.630364        71.5758 
 331   0.0000       2.632178        71.6252 
 332   0.0000       2.635908        71.7267 
 333   0.0000       2.636505        71.7429 
 334   0.0000       2.640794        71.8597 
 335   0.0000       2.643046        71.9209 
 336   0.0000       2.644811        71.9690 
 337   0.0000       2.654919        72.2440 
 338   0.0000       2.655798        72.2679 
 339   0.0000       2.656781        72.2947 
 340   0.0000       2.656860        72.2968 
 341   0.0000       2.662461        72.4492 
 342   0.0000       2.702893        73.5495 
 343   0.0000       2.714773        73.8727 
 344   0.0000       2.714928        73.8769 
 345   0.0000       2.715872        73.9026 
 346   0.0000       2.727052        74.2069 
 347   0.0000       2.728272        74.2400 
 348   0.0000       2.745201        74.7007 
 349   0.0000       2.746744        74.7427 
 350   0.0000       2.757775        75.0429 
 351   0.0000       2.784654        75.7743 
 352   0.0000       2.785538        75.7983 
 353   0.0000       2.786356        75.8206 
 354   0.0000       2.786712        75.8303 
 355   0.0000       2.799563        76.1800 
 356   0.0000       2.800483        76.2050 
 357   0.0000       2.849626        77.5423 
 358   0.0000       2.850032        77.5533 
 359   0.0000       2.851086        77.5820 
 360   0.0000       2.851305        77.5880 
 361   0.0000       2.916096        79.3510 
 362   0.0000       2.941882        80.0527 
 363   0.0000       2.943047        80.0844 
 364   0.0000       2.998573        81.5953 
 365   0.0000       3.001232        81.6677 
 366   0.0000       3.022281        82.2405 
 367   0.0000       3.026177        82.3465 
 368   0.0000       3.027005        82.3690 
 369   0.0000       3.030406        82.4616 
 370   0.0000       3.073524        83.6348 
 371   0.0000       3.076362        83.7121 
 372   0.0000       3.079648        83.8015 
 373   0.0000       3.083398        83.9035 
 374   0.0000       3.084032        83.9208 
 375   0.0000       3.107387        84.5563 
 376   0.0000       3.153972        85.8239 
 377   0.0000       3.182669        86.6048 
 378   0.0000       3.338299        90.8397 
 379   0.0000       3.362254        91.4916 
 380   0.0000       3.363063        91.5136 
 381   0.0000       3.363157        91.5162 
 382   0.0000       3.363717        91.5314 
 383   0.0000       3.370375        91.7126 
 384   0.0000       3.448133        93.8285 
 385   0.0000       3.450420        93.8907 
 386   0.0000       3.451883        93.9305 
 387   0.0000       3.453951        93.9868 
 388   0.0000       3.474798        94.5541 
 389   0.0000       3.526132        95.9509 
 390   0.0000       3.556111        96.7667 
 391   0.0000       3.595636        97.8422 
 392   0.0000       3.595706        97.8441 
 393   0.0000       3.789704       103.1231 
 394   0.0000       3.791936       103.1838 
 395   0.0000       3.812285       103.7375 
 396   0.0000       3.812544       103.7446 
 397   0.0000       3.816408       103.8497 
 398   0.0000       3.816768       103.8595 
 399   0.0000       4.033138       109.7473 
 400   0.0000       4.035328       109.8069 
 401   0.0000       4.037389       109.8629 
 402   0.0000       4.038057       109.8811 
 403   0.0000       4.170554       113.4865 
 404   0.0000       4.171724       113.5184 
 405   0.0000       4.432196       120.6062 
 406   0.0000       4.432445       120.6130 
 407   0.0000       4.438882       120.7881 
 408   0.0000       4.439151       120.7954 
 409   0.0000       4.644875       126.3935 
 410   0.0000       4.646711       126.4434 
 411   0.0000       4.663509       126.9005 
 412   0.0000       4.664121       126.9172 
 413   0.0000       5.128863       139.5635 
 414   0.0000       5.129996       139.5943 
 415   0.0000       5.130469       139.6072 
 416   0.0000       5.131075       139.6237 
 417   0.0000       5.245027       142.7244 
 418   0.0000       5.245640       142.7411 
 419   0.0000       5.246025       142.7516 
 420   0.0000       5.247065       142.7799 
 421   0.0000       5.342417       145.3746 
 422   0.0000       5.360830       145.8756 
 423   0.0000       5.377459       146.3281 
 424   0.0000       5.379090       146.3725 
 425   0.0000       5.380959       146.4233 
 426   0.0000       5.383196       146.4842 
 427   0.0000       5.581456       151.8791 
 428   0.0000       5.587468       152.0427 
 429   0.0000       5.751333       156.5017 
 430   0.0000       5.753307       156.5554 
 431   0.0000       5.756192       156.6339 
 432   0.0000       5.757693       156.6748 
 433   0.0000       6.049905       164.6263 
 434   0.0000       6.053885       164.7346 
 435   0.0000      11.299346       307.4708 
 436   0.0000      11.299658       307.4793 
 437   0.0000      11.314023       307.8702 
 438   0.0000      11.325434       308.1807 
 439   0.0000      11.332913       308.3842 
 440   0.0000      11.333622       308.4035 
 441   0.0000      11.346153       308.7445 
 442   0.0000      11.361921       309.1736 
 443   0.0000      11.370085       309.3957 
 444   0.0000      11.370667       309.4116 
 445   0.0000      11.371201       309.4261 
 446   0.0000      11.371269       309.4280 
 447   0.0000      11.371774       309.4417 
 448   0.0000      11.391834       309.9876 
 449   0.0000      11.393271       310.0267 
 450   0.0000      11.405191       310.3510 
 451   0.0000      11.430879       311.0500 
 452   0.0000      11.431770       311.0743 
 453   0.0000      22.905665       623.2948 
 454   0.0000      22.915430       623.5605 
 455   0.0000      25.345206       689.6781 
 456   0.0000      25.357050       690.0004 
 457   0.0000      25.436847       692.1718 
 458   0.0000      25.445477       692.4066 
 459   0.0000      25.549751       695.2441 
 460   0.0000      25.592553       696.4088 
 461   0.0000      32.680698       889.2870 
 462   0.0000      32.702875       889.8905 
 463   0.0000      35.895447       976.7648 
 464   0.0000      36.029539       980.4136 
 465   0.0000      36.030342       980.4354 
 466   0.0000      36.185697       984.6629 
 467   0.0000     123.875010      3370.8104 

                    ********************************
                    * MULLIKEN POPULATION ANALYSIS *
                    ********************************

-----------------------
MULLIKEN ATOMIC CHARGES
-----------------------
   0 C :   -0.243570
   1 N :   -0.296999
   2 H :    0.114148
   3 H :    0.114590
   4 H :    0.115041
   5 H :    0.268567
   6 H :    0.269523
   7 H :    0.270998
   8 Pb:    1.117457
   9 Cl:   -0.721352
  10 Cl:   -0.722956
  11 Cl:   -0.724590
  12 Cl:   -0.726008
  13 Cl:   -0.723285
  14 Cl:   -0.724381
  15 N :   -0.296061
  16 C :   -0.243529
  17 H :    0.267813
  18 H :    0.268657
  19 H :    0.115709
  20 H :    0.114924
  21 H :    0.113628
  22 H :    0.271675
Sum of atomic charges:   -2.0000000

--------------------------------
MULLIKEN REDUCED ORBITAL CHARGES
--------------------------------
  0 C s       :     3.240841  s :     3.240841
      pz      :     0.996343  p :     2.916096
      px      :     0.982505
      py      :     0.937247
      dz2     :     0.007888  d :     0.080191
      dxz     :     0.020822
      dyz     :     0.019483
      dx2y2   :     0.012392
      dxy     :     0.019606
      f0      :     0.000297  f :     0.006442
      f+1     :     0.000601
      f-1     :     0.000840
      f+2     :     0.000681
      f-2     :     0.002512
      f+3     :     0.000662
      f-3     :     0.000849
  1 N s       :     3.411245  s :     3.411245
      pz      :     1.297320  p :     3.835389
      px      :     1.286608
      py      :     1.251461
      dz2     :     0.004054  d :     0.048101
      dxz     :     0.013075
      dyz     :     0.012177
      dx2y2   :     0.006326
      dxy     :     0.012469
      f0      :     0.000135  f :     0.002264
      f+1     :     0.000201
      f-1     :     0.000208
      f+2     :     0.000208
      f-2     :     0.001064
      f+3     :     0.000223
      f-3     :     0.000225
  2 H s       :     0.864832  s :     0.864832
      pz      :     0.008090  p :     0.021020
      px      :     0.007568
      py      :     0.005362
  3 H s       :     0.864380  s :     0.864380
      pz      :     0.006287  p :     0.021030
      px      :     0.007133
      py      :     0.007611
  4 H s       :     0.863922  s :     0.863922
      pz      :     0.007738  p :     0.021037
      px      :     0.006785
      py      :     0.006514
  5 H s       :     0.685430  s :     0.685430
      pz      :     0.012257  p :     0.046003
      px      :     0.016606
      py      :     0.017140
  6 H s       :     0.684489  s :     0.684489
      pz      :     0.014845  p :     0.045988
      px      :     0.010999
      py      :     0.020144
  7 H s       :     0.682530  s :     0.682530
      pz      :     0.020057  p :     0.046473
      px      :     0.019013
      py      :     0.007402
  8 Pbs       :     4.014982  s :     4.014982
      pz      :     2.235892  p :     6.707665
      px      :     2.236637
      py      :     2.235136
      dz2     :     2.042652  d :    10.133538
      dxz     :     2.014699
      dyz     :     2.016867
      dx2y2   :     2.044309
      dxy     :     2.015010
      f0      :     0.006078  f :     0.026358
      f+1     :     0.003677
      f-1     :     0.004399
      f+2     :     0.002088
      f-2     :     0.000269
      f+3     :     0.004667
      f-3     :     0.005180
  9 Cls       :     5.958502  s :     5.958502
      pz      :     3.943586  p :    11.754770
      px      :     3.893589
      py      :     3.917595
      dz2     :     0.000999  d :     0.007786
      dxz     :     0.000712
      dyz     :     0.002256
      dx2y2   :     0.002893
      dxy     :     0.000926
      f0      :     0.000038  f :     0.000294
      f+1     :     0.000040
      f-1     :     0.000034
      f+2     :     0.000060
      f-2     :     0.000044
      f+3     :     0.000064
      f-3     :     0.000013
 10 Cls       :     5.958287  s :     5.958287
      pz      :     3.933104  p :    11.756542
      px      :     3.933050
      py      :     3.890388
      dz2     :     0.001203  d :     0.007827
      dxz     :     0.002849
      dyz     :     0.000664
      dx2y2   :     0.002567
      dxy     :     0.000544
      f0      :     0.000019  f :     0.000301
      f+1     :     0.000088
      f-1     :     0.000029
      f+2     :     0.000081
      f-2     :     0.000019
      f+3     :     0.000014
      f-3     :     0.000049
 11 Cls       :     5.958785  s :     5.958785
      pz      :     3.898260  p :    11.757968
      px      :     3.937459
      py      :     3.922249
      dz2     :     0.003049  d :     0.007554
      dxz     :     0.000877
      dyz     :     0.000995
      dx2y2   :     0.000400
      dxy     :     0.002232
      f0      :     0.000088  f :     0.000283
      f+1     :     0.000015
      f-1     :     0.000022
      f+2     :     0.000005
      f-2     :     0.000055
      f+3     :     0.000058
      f-3     :     0.000042
 12 Cls       :     5.958968  s :     5.958968
      pz      :     3.943517  p :    11.759363
      px      :     3.897139
      py      :     3.918708
      dz2     :     0.000952  d :     0.007402
      dxz     :     0.000679
      dyz     :     0.002193
      dx2y2   :     0.002713
      dxy     :     0.000866
      f0      :     0.000035  f :     0.000274
      f+1     :     0.000037
      f-1     :     0.000033
      f+2     :     0.000056
      f-2     :     0.000042
      f+3     :     0.000059
      f-3     :     0.000012
 13 Cls       :     5.958736  s :     5.958736
      pz      :     3.896840  p :    11.756645
      px      :     3.937050
      py      :     3.922755
      dz2     :     0.003129  d :     0.007618
      dxz     :     0.000883
      dyz     :     0.001015
      dx2y2   :     0.000387
      dxy     :     0.002204
      f0      :     0.000090  f :     0.000286
      f+1     :     0.000015
      f-1     :     0.000023
      f+2     :     0.000005
      f-2     :     0.000055
      f+3     :     0.000057
      f-3     :     0.000042
 14 Cls       :     5.958266  s :     5.958266
      pz      :     3.933639  p :    11.758071
      px      :     3.932174
      py      :     3.892258
      dz2     :     0.001176  d :     0.007747
      dxz     :     0.002839
      dyz     :     0.000681
      dx2y2   :     0.002519
      dxy     :     0.000531
      f0      :     0.000020  f :     0.000296
      f+1     :     0.000086
      f-1     :     0.000028
      f+2     :     0.000081
      f-2     :     0.000020
      f+3     :     0.000014
      f-3     :     0.000048
 15 N s       :     3.410898  s :     3.410898
      pz      :     1.298231  p :     3.834823
      px      :     1.288207
      py      :     1.248385
      dz2     :     0.004045  d :     0.048077
      dxz     :     0.013025
      dyz     :     0.012146
      dx2y2   :     0.006392
      dxy     :     0.012469
      f0      :     0.000134  f :     0.002263
      f+1     :     0.000203
      f-1     :     0.000209
      f+2     :     0.000209
      f-2     :     0.001053
      f+3     :     0.000227
      f-3     :     0.000229
 16 C s       :     3.240777  s :     3.240777
      pz      :     0.998052  p :     2.916132
      px      :     0.984431
      py      :     0.933649
      dz2     :     0.007847  d :     0.080174
      dxz     :     0.020827
      dyz     :     0.019368
      dx2y2   :     0.012463
      dxy     :     0.019670
      f0      :     0.000294  f :     0.006445
      f+1     :     0.000599
      f-1     :     0.000854
      f+2     :     0.000679
      f-2     :     0.002480
      f+3     :     0.000667
      f-3     :     0.000872
 17 H s       :     0.686443  s :     0.686443
      pz      :     0.014670  p :     0.045744
      px      :     0.011045
      py      :     0.020028
 18 H s       :     0.685400  s :     0.685400
      pz      :     0.012326  p :     0.045943
      px      :     0.016557
      py      :     0.017060
 19 H s       :     0.863242  s :     0.863242
      pz      :     0.007807  p :     0.021049
      px      :     0.006761
      py      :     0.006482
 20 H s       :     0.864041  s :     0.864041
      pz      :     0.006187  p :     0.021035
      px      :     0.007227
      py      :     0.007622
 21 H s       :     0.865367  s :     0.865367
      pz      :     0.008183  p :     0.021004
      px      :     0.007586
      py      :     0.005235
 22 H s       :     0.681968  s :     0.681968
      pz      :     0.020055  p :     0.046358
      px      :     0.019002
      py      :     0.007300


                     *******************************
                     * LOEWDIN POPULATION ANALYSIS *
                     *******************************

----------------------
LOEWDIN ATOMIC CHARGES
----------------------
   0 C :   -0.325152
   1 N :    0.039073
   2 H :    0.109530
   3 H :    0.109627
   4 H :    0.109767
   5 H :    0.136727
   6 H :    0.136890
   7 H :    0.134986
   8 Pb:    0.233145
   9 Cl:   -0.517723
  10 Cl:   -0.519961
  11 Cl:   -0.526081
  12 Cl:   -0.530019
  13 Cl:   -0.521994
  14 Cl:   -0.523519
  15 N :    0.039769
  16 C :   -0.324842
  17 H :    0.137804
  18 H :    0.136981
  19 H :    0.110056
  20 H :    0.109808
  21 H :    0.109304
  22 H :    0.135824

-------------------------------
LOEWDIN REDUCED ORBITAL CHARGES
-------------------------------
  0 C s       :     2.849180  s :     2.849180
      pz      :     1.050181  p :     3.101178
      px      :     1.040818
      py      :     1.010178
      dz2     :     0.031050  d :     0.335324
      dxz     :     0.085827
      dyz     :     0.084676
      dx2y2   :     0.045744
      dxy     :     0.088027
      f0      :     0.004604  f :     0.039471
      f+1     :     0.004310
      f-1     :     0.006643
      f+2     :     0.004142
      f-2     :     0.006868
      f+3     :     0.005721
      f-3     :     0.007182
  1 N s       :     3.018574  s :     3.018574
      pz      :     1.266911  p :     3.778456
      px      :     1.262666
      py      :     1.248879
      dz2     :     0.014276  d :     0.154222
      dxz     :     0.039996
      dyz     :     0.038737
      dx2y2   :     0.021219
      dxy     :     0.039995
      f0      :     0.001217  f :     0.009674
      f+1     :     0.001112
      f-1     :     0.001467
      f+2     :     0.000987
      f-2     :     0.001904
      f+3     :     0.001348
      f-3     :     0.001639
  2 H s       :     0.830598  s :     0.830598
      pz      :     0.022461  p :     0.059872
      px      :     0.021064
      py      :     0.016346
  3 H s       :     0.830476  s :     0.830476
      pz      :     0.018029  p :     0.059897
      px      :     0.021124
      py      :     0.020744
  4 H s       :     0.830314  s :     0.830314
      pz      :     0.022719  p :     0.059919
      px      :     0.019133
      py      :     0.018067
  5 H s       :     0.719579  s :     0.719579
      pz      :     0.042055  p :     0.143695
      px      :     0.050406
      py      :     0.051234
  6 H s       :     0.719318  s :     0.719318
      pz      :     0.045097  p :     0.143792
      px      :     0.037765
      py      :     0.060931
  7 H s       :     0.719302  s :     0.719302
      pz      :     0.062120  p :     0.145713
      px      :     0.058391
      py      :     0.025201
  8 Pbs       :     3.937744  s :     3.937744
      pz      :     2.388936  p :     7.170051
      px      :     2.390466
      py      :     2.390649
      dz2     :     2.211648  d :    10.591597
      dxz     :     2.049752
      dyz     :     2.061225
      dx2y2   :     2.218243
      dxy     :     2.050729
      f0      :     0.016104  f :     0.067463
      f+1     :     0.009311
      f-1     :     0.011088
      f+2     :     0.004926
      f-2     :     0.000577
      f+3     :     0.012164
      f-3     :     0.013293
  9 Cls       :     5.854034  s :     5.854034
      pz      :     3.920422  p :    11.649879
      px      :     3.840447
      py      :     3.889009
      dz2     :     0.001590  d :     0.013181
      dxz     :     0.000854
      dyz     :     0.004108
      dx2y2   :     0.005272
      dxy     :     0.001356
      f0      :     0.000063  f :     0.000629
      f+1     :     0.000074
      f-1     :     0.000064
      f+2     :     0.000144
      f-2     :     0.000102
      f+3     :     0.000151
      f-3     :     0.000032
 10 Cls       :     5.854811  s :     5.854811
      pz      :     3.903611  p :    11.651301
      px      :     3.905207
      py      :     3.842483
      dz2     :     0.001979  d :     0.013205
      dxz     :     0.005159
      dyz     :     0.000684
      dx2y2   :     0.004867
      dxy     :     0.000516
      f0      :     0.000025  f :     0.000643
      f+1     :     0.000197
      f-1     :     0.000056
      f+2     :     0.000204
      f-2     :     0.000027
      f+3     :     0.000036
      f-3     :     0.000099
 11 Cls       :     5.857309  s :     5.857309
      pz      :     3.844662  p :    11.655461
      px      :     3.913370
      py      :     3.897429
      dz2     :     0.005421  d :     0.012705
      dxz     :     0.001169
      dyz     :     0.001615
      dx2y2   :     0.000443
      dxy     :     0.004058
      f0      :     0.000195  f :     0.000606
      f+1     :     0.000025
      f-1     :     0.000045
      f+2     :     0.000007
      f-2     :     0.000132
      f+3     :     0.000119
      f-3     :     0.000082
 12 Cls       :     5.858836  s :     5.858836
      pz      :     3.922028  p :    11.658182
      px      :     3.844513
      py      :     3.891641
      dz2     :     0.001487  d :     0.012417
      dxz     :     0.000814
      dyz     :     0.003958
      dx2y2   :     0.004885
      dxy     :     0.001273
      f0      :     0.000058  f :     0.000584
      f+1     :     0.000067
      f-1     :     0.000062
      f+2     :     0.000135
      f-2     :     0.000096
      f+3     :     0.000137
      f-3     :     0.000029
 13 Cls       :     5.855554  s :     5.855554
      pz      :     3.843096  p :    11.652925
      px      :     3.912528
      py      :     3.897301
      dz2     :     0.005622  d :     0.012902
      dxz     :     0.001175
      dyz     :     0.001643
      dx2y2   :     0.000429
      dxy     :     0.004034
      f0      :     0.000202  f :     0.000613
      f+1     :     0.000025
      f-1     :     0.000047
      f+2     :     0.000007
      f-2     :     0.000131
      f+3     :     0.000117
      f-3     :     0.000083
 14 Cls       :     5.856176  s :     5.856176
      pz      :     3.904473  p :    11.653698
      px      :     3.904929
      py      :     3.844296
      dz2     :     0.001917  d :     0.013012
      dxz     :     0.005109
      dyz     :     0.000708
      dx2y2   :     0.004771
      dxy     :     0.000507
      f0      :     0.000026  f :     0.000633
      f+1     :     0.000191
      f-1     :     0.000054
      f+2     :     0.000202
      f-2     :     0.000028
      f+3     :     0.000035
      f-3     :     0.000096
 15 N s       :     3.018420  s :     3.018420
      pz      :     1.267157  p :     3.777972
      px      :     1.263161
      py      :     1.247653
      dz2     :     0.014230  d :     0.154172
      dxz     :     0.039784
      dyz     :     0.038650
      dx2y2   :     0.021438
      dxy     :     0.040070
      f0      :     0.001202  f :     0.009667
      f+1     :     0.001096
      f-1     :     0.001488
      f+2     :     0.000985
      f-2     :     0.001889
      f+3     :     0.001342
      f-3     :     0.001665
 16 C s       :     2.849170  s :     2.849170
      pz      :     1.051181  p :     3.101086
      px      :     1.042097
      py      :     1.007808
      dz2     :     0.031052  d :     0.335118
      dxz     :     0.085561
      dyz     :     0.084153
      dx2y2   :     0.046244
      dxy     :     0.088107
      f0      :     0.004533  f :     0.039468
      f+1     :     0.004208
      f-1     :     0.006767
      f+2     :     0.004124
      f-2     :     0.006823
      f+3     :     0.005697
      f-3     :     0.007315
 17 H s       :     0.719566  s :     0.719566
      pz      :     0.044420  p :     0.142631
      px      :     0.037928
      py      :     0.060283
 18 H s       :     0.719641  s :     0.719641
      pz      :     0.042246  p :     0.143378
      px      :     0.050238
      py      :     0.050893
 19 H s       :     0.830006  s :     0.830006
      pz      :     0.022892  p :     0.059938
      px      :     0.019090
      py      :     0.017956
 20 H s       :     0.830281  s :     0.830281
      pz      :     0.017805  p :     0.059911
      px      :     0.021367
      py      :     0.020738
 21 H s       :     0.830849  s :     0.830849
      pz      :     0.022711  p :     0.059846
      px      :     0.021132
      py      :     0.016004
 22 H s       :     0.718849  s :     0.718849
      pz      :     0.062181  p :     0.145326
      px      :     0.058365
      py      :     0.024780


                      *****************************
                      * MAYER POPULATION ANALYSIS *
                      *****************************

  NA   - Mulliken gross atomic population
  ZA   - Total nuclear charge
  QA   - Mulliken gross atomic charge
  VA   - Mayer's total valence
  BVA  - Mayer's bonded valence
  FA   - Mayer's free valence

  ATOM       NA         ZA         QA         VA         BVA        FA
  0 C      6.2436     6.0000    -0.2436     3.9525     3.9525     0.0000
  1 N      7.2970     7.0000    -0.2970     3.1168     3.1168    -0.0000
  2 H      0.8859     1.0000     0.1141     0.9665     0.9665     0.0000
  3 H      0.8854     1.0000     0.1146     0.9663     0.9663    -0.0000
  4 H      0.8850     1.0000     0.1150     0.9664     0.9664    -0.0000
  5 H      0.7314     1.0000     0.2686     1.0232     1.0232    -0.0000
  6 H      0.7305     1.0000     0.2695     1.0215     1.0215    -0.0000
  7 H      0.7290     1.0000     0.2710     1.0212     1.0212     0.0000
  8 Pb    20.8825    22.0000     1.1175     1.5396     1.5396     0.0000
  9 Cl    17.7214    17.0000    -0.7214     0.5077     0.5077    -0.0000
 10 Cl    17.7230    17.0000    -0.7230     0.5050     0.5050    -0.0000
 11 Cl    17.7246    17.0000    -0.7246     0.5021     0.5021    -0.0000
 12 Cl    17.7260    17.0000    -0.7260     0.4998     0.4998     0.0000
 13 Cl    17.7233    17.0000    -0.7233     0.5041     0.5041     0.0000
 14 Cl    17.7244    17.0000    -0.7244     0.5029     0.5029     0.0000
 15 N      7.2961     7.0000    -0.2961     3.1189     3.1189     0.0000
 16 C      6.2435     6.0000    -0.2435     3.9523     3.9523    -0.0000
 17 H      0.7322     1.0000     0.2678     1.0241     1.0241     0.0000
 18 H      0.7313     1.0000     0.2687     1.0220     1.0220    -0.0000
 19 H      0.8843     1.0000     0.1157     0.9665     0.9665    -0.0000
 20 H      0.8851     1.0000     0.1149     0.9665     0.9665     0.0000
 21 H      0.8864     1.0000     0.1136     0.9662     0.9662    -0.0000
 22 H      0.7283     1.0000     0.2717     1.0210     1.0210    -0.0000

  Mayer bond orders larger than 0.1
B(  0-C ,  1-N ) :   0.9577 B(  0-C ,  2-H ) :   0.9795 B(  0-C ,  3-H ) :   0.9790 
B(  0-C ,  4-H ) :   0.9788 B(  1-N ,  5-H ) :   0.7663 B(  1-N ,  6-H ) :   0.7666 
B(  1-N ,  7-H ) :   0.7646 B(  5-H , 11-Cl) :   0.2596 B(  6-H ,  9-Cl) :   0.2580 
B(  7-H , 10-Cl) :   0.2595 B(  8-Pb,  9-Cl) :   0.2630 B(  8-Pb, 10-Cl) :   0.2578 
B(  8-Pb, 11-Cl) :   0.2559 B(  8-Pb, 12-Cl) :   0.2543 B(  8-Pb, 13-Cl) :   0.2606 
B(  8-Pb, 14-Cl) :   0.2545 B( 12-Cl, 17-H ) :   0.2594 B( 13-Cl, 18-H ) :   0.2567 
B( 14-Cl, 22-H ) :   0.2606 B( 15-N , 16-C ) :   0.9580 B( 15-N , 17-H ) :   0.7675 
B( 15-N , 18-H ) :   0.7680 B( 15-N , 22-H ) :   0.7638 B( 16-C , 19-H ) :   0.9788 
B( 16-C , 20-H ) :   0.9789 B( 16-C , 21-H ) :   0.9794 

-------
TIMINGS
-------

Total SCF time: 0 days 0 hours 5 min 14 sec 

Total time                  ....     314.497 sec
Sum of individual times     ....     249.534 sec  ( 79.3%)

Fock matrix formation       ....     235.373 sec  ( 74.8%)
  Coulomb formation         ....     198.542 sec  ( 84.4% of F)
  Split-RI-J                ....      14.580 sec  (  6.2% of F)
  Chain of spheres X        ....     246.811 sec  (104.9% of F)
  COS-X 1 center corr.      ....       0.000 sec  (  0.0% of F)
  XC integration            ....      36.964 sec  ( 15.7% of F)
    Basis function eval.    ....      18.977 sec  ( 51.3% of XC)
    Density eval.           ....       8.084 sec  ( 21.9% of XC)
    XC-Functional eval.     ....       1.764 sec  (  4.8% of XC)
    XC-Potential eval.      ....       7.380 sec  ( 20.0% of XC)
Diagonalization             ....       0.265 sec  (  0.1%)
Density matrix formation    ....       0.083 sec  (  0.0%)
Population analysis         ....       0.406 sec  (  0.1%)
Initial guess               ....       0.823 sec  (  0.3%)
Orbital Transformation      ....       0.000 sec  (  0.0%)
Orbital Orthonormalization  ....       0.808 sec  (  0.3%)
DIIS solution               ....       0.061 sec  (  0.0%)
SOSCF solution              ....       0.316 sec  (  0.1%)
Grid generation             ....      12.207 sec  (  3.9%)

------------------------------------------------------------------------------
                              ORCA MP2 CALCULATION
------------------------------------------------------------------------------


----------------------
RI-MP2 ENERGY+GRADIENT
----------------------
Dimension of the basis                    ...  468
Memory devoted to MP2                     ... 1000 MB   
Data format for buffers                   ... DOUBLE
Compression type for matrix containers    ... UNCOMPRESSED
Overall scaling of the MP2 energy         ...   2.700e-01 Eh
Calculating two index integrals           ... done (    0.023 sec)
Cholesky decomposition of the V-matrix    ... done
Cholesky decomposition of V**-1           ... done (    0.101 sec)

-----------------
RI-TRANSFORMATION (AUX index driven)
-----------------

Dimension of the orbital-basis         ... 468
Dimension of the aux-basis             ... 810
Transformation of internal MOs         ...    0-  81
Transformation of internal/external MOs...    0-  81 to   82- 467
Number Format for Storage              ... Double (8 Byte)
Integral mode                          ... Direct

First Phase: integral generation and transformation of MO indices
  Aux angular momentum 0               ... done (    2.115 sec)
  Aux angular momentum 1               ... done (    2.048 sec)
  Aux angular momentum 2               ... done (    2.528 sec)
  Aux angular momentum 3               ... done (    1.181 sec)
  Aux angular momentum 4               ... done (    1.159 sec)
Closing buffer VIJ ( 0.02 GB; CompressionRatio= 1.98)
Closing buffer VIA ( 0.19 GB; CompressionRatio= 1.00)
  Phase 1 completed in     9.146 sec
Second Phase: sorting and transformation of aux index

IJ-Transformation
Memory available                       ... 972 MB 
Max. # MO pairs treated in a batch     ... 82    
# of internal orbitals                 ... 82
# batches for internal orbitals        ... 1
Closing buffer IJV ( 0.02 GB; CompressionRatio= 1.00)
(ij|v) transformation done in     0.764 sec

IA-Transformation
Memory available                       ... 972 MB 
Max. # MO pairs treated in a batch     ... 82    
# of internal orbitals                 ... 82
# batches for internal orbitals        ... 1
Closing buffer IAV ( 0.19 GB; CompressionRatio= 1.00)
(ia|v) transformation done in     2.908 sec

  Phase 2 completed in     6.995 sec
RI-Integral transformation completed in    16.142 sec
Opening buffers                              ... done

Starting loop over batches of integrals:

Operator 0  - window                       ... (  0- 81)x( 82-467)
Operator 0  - Memory available             ...  1000 MB
Operator 0  - Memory needed per MO         ...   4.8 MB
Operator 0  - Number of orbitals per batch ... 82
Operator 0  - Number of batches            ... 1

OPERATOR  0   PASS   0:  MOs     0 ...   81
  Reading integrals       ... ok
  Internal MO   2
  Internal MO   5
  Internal MO   8
  Internal MO  11
  Internal MO  14
  Internal MO  17
  Internal MO  20
  Internal MO  23
  Internal MO  26
  Internal MO  29
  Internal MO  32
  Internal MO  35
  Internal MO  38
  Internal MO  41
  Internal MO  44
  Internal MO  47
  Internal MO  50
  Internal MO  53
  Internal MO  56
  Internal MO  59
  Internal MO  62
  Internal MO  65
  Internal MO  68
  Internal MO  71
  Internal MO  74
  Internal MO  77
  Internal MO  80
Closing buffer GIPV ( 0.23 GB; CompressionRatio= 1.00)
Time spent in pair loops =   806.614 sec

-----------------------------------------------
 RI-MP2 CORRELATION ENERGY:     -1.013579569 Eh
-----------------------------------------------


---------------------
MP2 DENSITY FORMATION
---------------------

Completing the external part of the density      ... done
Storing the unrelaxed density                    ... done

Calculating the xc-kernel                        ... done
Calculating G(D)                                 ... done
Completing the Lagrangian                        ... done
Solving the Z-vector equations                   ... 

------------------------------------------------------------------------------
                           ORCA CP-SCF CALCULATION
------------------------------------------------------------------------------

Input orbitals are from        ... PbCl6NH3CH3-2_mp2_sp_0.orca.gbw
Input Perturbation             ... PbCl6NH3CH3-2_mp2_sp_0.orca.pin.tmp
Wavefunction output            ... PbCl6NH3CH3-2_mp2_sp_0.orca.pout.tmp
Perturbation mode              ... Real perturbation
Solver                         ... POPLE
Max. number of iterations      ... 128
Convergence tolerance          ... 1.000e-08
Integral handling              ... Direct
COSX GridX                     ... 1
Number of perturbations        ... 1
Number of operators            ... 1
Orbital ranges used for CP-SCF:
[...]
      pz      :     0.008355  p :     0.021749
      px      :     0.007798
      py      :     0.005597
 22 H s       :     0.690741  s :     0.690741
      pz      :     0.019956  p :     0.046507
      px      :     0.018946
      py      :     0.007605


                     *******************************
                     * LOEWDIN POPULATION ANALYSIS *
                     *******************************

----------------------
LOEWDIN ATOMIC CHARGES
----------------------
   0 C :   -0.339464
   1 N :    0.033283
   2 H :    0.112049
   3 H :    0.112144
   4 H :    0.112279
   5 H :    0.133728
   6 H :    0.133923
   7 H :    0.132020
   8 Pb:    0.168875
   9 Cl:   -0.499836
  10 Cl:   -0.502138
  11 Cl:   -0.508181
  12 Cl:   -0.512065
  13 Cl:   -0.504109
  14 Cl:   -0.505694
  15 N :    0.033970
  16 C :   -0.339152
  17 H :    0.134802
  18 H :    0.134002
  19 H :    0.112563
  20 H :    0.112320
  21 H :    0.111829
  22 H :    0.132855

-------------------------------
LOEWDIN REDUCED ORBITAL CHARGES
-------------------------------
  0 C s       :     2.849992  s :     2.849992
      pz      :     1.052271  p :     3.107762
      px      :     1.042969
      py      :     1.012521
      dz2     :     0.033096  d :     0.340649
      dxz     :     0.086218
      dyz     :     0.085166
      dx2y2   :     0.047773
      dxy     :     0.088395
      f0      :     0.004835  f :     0.041062
      f+1     :     0.004506
      f-1     :     0.006831
      f+2     :     0.004318
      f-2     :     0.007251
      f+3     :     0.005945
      f-3     :     0.007376
  1 N s       :     3.020579  s :     3.020579
      pz      :     1.263843  p :     3.768380
      px      :     1.259430
      py      :     1.245108
      dz2     :     0.016608  d :     0.166610
      dxz     :     0.042643
      dyz     :     0.041270
      dx2y2   :     0.023579
      dxy     :     0.042510
      f0      :     0.001417  f :     0.011148
      f+1     :     0.001300
      f-1     :     0.001651
      f+2     :     0.001171
      f-2     :     0.002224
      f+3     :     0.001552
      f-3     :     0.001831
  2 H s       :     0.825926  s :     0.825926
      pz      :     0.023197  p :     0.062025
      px      :     0.021798
      py      :     0.017030
  3 H s       :     0.825809  s :     0.825809
      pz      :     0.018721  p :     0.062048
      px      :     0.021816
      py      :     0.021511
  4 H s       :     0.825651  s :     0.825651
      pz      :     0.023415  p :     0.062070
      px      :     0.019847
      py      :     0.018808
  5 H s       :     0.721484  s :     0.721484
      pz      :     0.042533  p :     0.144788
      px      :     0.050725
      py      :     0.051530
  6 H s       :     0.721200  s :     0.721200
      pz      :     0.045444  p :     0.144877
      px      :     0.038254
      py      :     0.061179
  7 H s       :     0.721211  s :     0.721211
      pz      :     0.062382  p :     0.146770
      px      :     0.058663
      py      :     0.025724
  8 Pbs       :     3.914972  s :     3.914972
      pz      :     2.418318  p :     7.258119
      px      :     2.419873
      py      :     2.419928
      dz2     :     2.201628  d :    10.556029
      dxz     :     2.044800
      dyz     :     2.055839
      dx2y2   :     2.208114
      dxy     :     2.045647
      f0      :     0.020777  f :     0.102006
      f+1     :     0.014286
      f-1     :     0.015994
      f+2     :     0.010128
      f-2     :     0.005690
      f+3     :     0.017022
      f-3     :     0.018108
  9 Cls       :     5.851594  s :     5.851594
      pz      :     3.903009  p :    11.591825
      px      :     3.818655
      py      :     3.870161
      dz2     :     0.009472  d :     0.053091
      dxz     :     0.008797
      dyz     :     0.012144
      dx2y2   :     0.013330
      dxy     :     0.009348
      f0      :     0.000444  f :     0.003325
      f+1     :     0.000454
      f-1     :     0.000446
      f+2     :     0.000536
      f-2     :     0.000486
      f+3     :     0.000541
      f-3     :     0.000418
 10 Cls       :     5.852360  s :     5.852360
      pz      :     3.885432  p :    11.593317
      px      :     3.887114
      py      :     3.820771
      dz2     :     0.009913  d :     0.053122
      dxz     :     0.013239
      dyz     :     0.008626
      dx2y2   :     0.012888
      dxy     :     0.008456
      f0      :     0.000406  f :     0.003340
      f+1     :     0.000589
      f-1     :     0.000437
      f+2     :     0.000598
      f-2     :     0.000408
      f+3     :     0.000419
      f-3     :     0.000483
 11 Cls       :     5.854830  s :     5.854830
      pz      :     3.822900  p :    11.597463
      px      :     3.895614
      py      :     3.878949
      dz2     :     0.013467  d :     0.052590
      dxz     :     0.009130
      dyz     :     0.009601
      dx2y2   :     0.008303
      dxy     :     0.012089
      f0      :     0.000588  f :     0.003298
      f+1     :     0.000410
      f-1     :     0.000431
      f+2     :     0.000383
      f-2     :     0.000518
      f+3     :     0.000503
      f-3     :     0.000464
 12 Cls       :     5.856340  s :     5.856340
      pz      :     3.904651  p :    11.600170
      px      :     3.822668
      py      :     3.872851
      dz2     :     0.009363  d :     0.052282
      dxz     :     0.008749
      dyz     :     0.011984
      dx2y2   :     0.012930
      dxy     :     0.009256
      f0      :     0.000439  f :     0.003274
      f+1     :     0.000446
      f-1     :     0.000444
      f+2     :     0.000526
      f-2     :     0.000479
      f+3     :     0.000526
      f-3     :     0.000414
 13 Cls       :     5.853090  s :     5.853090
      pz      :     3.821344  p :    11.594916
      px      :     3.894744
      py      :     3.878827
      dz2     :     0.013671  d :     0.052797
      dxz     :     0.009138
      dyz     :     0.009632
      dx2y2   :     0.008290
      dxy     :     0.012067
      f0      :     0.000596  f :     0.003306
      f+1     :     0.000410
      f-1     :     0.000433
      f+2     :     0.000383
      f-2     :     0.000518
      f+3     :     0.000501
      f-3     :     0.000465
 14 Cls       :     5.853708  s :     5.853708
      pz      :     3.886328  p :    11.595747
      px      :     3.886823
      py      :     3.822596
      dz2     :     0.009846  d :     0.052913
      dxz     :     0.013186
      dyz     :     0.008646
      dx2y2   :     0.012790
      dxy     :     0.008444
      f0      :     0.000407  f :     0.003328
      f+1     :     0.000583
      f-1     :     0.000434
      f+2     :     0.000596
      f-2     :     0.000409
      f+3     :     0.000418
      f-3     :     0.000480
 15 N s       :     3.020419  s :     3.020419
      pz      :     1.264114  p :     3.767934
      px      :     1.259958
      py      :     1.243862
      dz2     :     0.016560  d :     0.166537
      dxz     :     0.042427
      dyz     :     0.041176
      dx2y2   :     0.023795
      dxy     :     0.042579
      f0      :     0.001403  f :     0.011140
      f+1     :     0.001285
      f-1     :     0.001672
      f+2     :     0.001170
      f-2     :     0.002207
      f+3     :     0.001548
      f-3     :     0.001856
 16 C s       :     2.849982  s :     2.849982
      pz      :     1.053266  p :     3.107676
      px      :     1.044239
      py      :     1.010171
      dz2     :     0.033081  d :     0.340435
      dxz     :     0.085954
      dyz     :     0.084664
      dx2y2   :     0.048258
      dxy     :     0.088478
      f0      :     0.004764  f :     0.041059
      f+1     :     0.004406
      f-1     :     0.006954
      f+2     :     0.004303
      f-2     :     0.007201
      f+3     :     0.005923
      f-3     :     0.007508
 17 H s       :     0.721457  s :     0.721457
      pz      :     0.044774  p :     0.143741
      px      :     0.038421
      py      :     0.060546
 18 H s       :     0.721525  s :     0.721525
      pz      :     0.042724  p :     0.144473
      px      :     0.050558
      py      :     0.051191
 19 H s       :     0.825353  s :     0.825353
      pz      :     0.023587  p :     0.062085
      px      :     0.019801
      py      :     0.018697
 20 H s       :     0.825620  s :     0.825620
      pz      :     0.018494  p :     0.062060
      px      :     0.022060
      py      :     0.021506
 21 H s       :     0.826170  s :     0.826170
      pz      :     0.023447  p :     0.062001
      px      :     0.021865
      py      :     0.016689
 22 H s       :     0.720764  s :     0.720764
      pz      :     0.062443  p :     0.146381
      px      :     0.058638
      py      :     0.025300


                      *****************************
                      * MAYER POPULATION ANALYSIS *
                      *****************************

  NA   - Mulliken gross atomic population
  ZA   - Total nuclear charge
  QA   - Mulliken gross atomic charge
  VA   - Mayer's total valence
  BVA  - Mayer's bonded valence
  FA   - Mayer's free valence

  ATOM       NA         ZA         QA         VA         BVA        FA
  0 C      6.2697     6.0000    -0.2697     4.0003     3.8824     0.1179
  1 N      7.2892     7.0000    -0.2892     3.2002     3.0531     0.1471
  2 H      0.8813     1.0000     0.1187     0.9691     0.9493     0.0198
  3 H      0.8809     1.0000     0.1191     0.9689     0.9491     0.0198
  4 H      0.8804     1.0000     0.1196     0.9690     0.9492     0.0198
  5 H      0.7406     1.0000     0.2594     1.0313     1.0092     0.0220
  6 H      0.7395     1.0000     0.2605     1.0295     1.0074     0.0220
  7 H      0.7380     1.0000     0.2620     1.0291     1.0072     0.0220
  8 Pb    20.9695    22.0000     1.0305     1.9833     1.6212     0.3620
  9 Cl    17.6961    17.0000    -0.6961     0.7911     0.5337     0.2574
 10 Cl    17.6979    17.0000    -0.6979     0.7882     0.5309     0.2573
 11 Cl    17.6995    17.0000    -0.6995     0.7853     0.5281     0.2572
 12 Cl    17.7009    17.0000    -0.7009     0.7831     0.5259     0.2572
 13 Cl    17.6981    17.0000    -0.6981     0.7874     0.5301     0.2573
 14 Cl    17.6994    17.0000    -0.6994     0.7860     0.5288     0.2572
 15 N      7.2882     7.0000    -0.2882     3.2021     3.0551     0.1469
 16 C      6.2697     6.0000    -0.2697     4.0003     3.8824     0.1179
 17 H      0.7413     1.0000     0.2587     1.0321     1.0101     0.0221
 18 H      0.7405     1.0000     0.2595     1.0301     1.0081     0.0220
 19 H      0.8798     1.0000     0.1202     0.9691     0.9494     0.0198
 20 H      0.8805     1.0000     0.1195     0.9691     0.9493     0.0198
 21 H      0.8818     1.0000     0.1182     0.9688     0.9490     0.0198
 22 H      0.7372     1.0000     0.2628     1.0289     1.0069     0.0220

  Mayer bond orders larger than 0.1
B(  0-C ,  1-N ) :   0.9401 B(  0-C ,  2-H ) :   0.9607 B(  0-C ,  3-H ) :   0.9602 
B(  0-C ,  4-H ) :   0.9601 B(  1-N ,  5-H ) :   0.7470 B(  1-N ,  6-H ) :   0.7473 
B(  1-N ,  7-H ) :   0.7453 B(  5-H , 11-Cl) :   0.2652 B(  6-H ,  9-Cl) :   0.2635 
B(  7-H , 10-Cl) :   0.2649 B(  8-Pb,  9-Cl) :   0.2757 B(  8-Pb, 10-Cl) :   0.2705 
B(  8-Pb, 11-Cl) :   0.2686 B(  8-Pb, 12-Cl) :   0.2671 B(  8-Pb, 13-Cl) :   0.2734 
B(  8-Pb, 14-Cl) :   0.2672 B( 12-Cl, 17-H ) :   0.2648 B( 13-Cl, 18-H ) :   0.2623 
B( 14-Cl, 22-H ) :   0.2659 B( 15-N , 16-C ) :   0.9404 B( 15-N , 17-H ) :   0.7482 
B( 15-N , 18-H ) :   0.7487 B( 15-N , 22-H ) :   0.7445 B( 16-C , 19-H ) :   0.9600 
B( 16-C , 20-H ) :   0.9601 B( 16-C , 21-H ) :   0.9606 


-------
TIMINGS
-------

Total time                : 1556.123 sec
Integral trafo            :   16.154 sec (  1.0%)
I/O of integrals          :    1.134 sec (  0.1%)
K(i,j) Operators          :  100.230 sec (  6.4%)
T(i,j) pair energies      :   13.099 sec (  0.8%)
V-calculation             :    0.023 sec (  0.0%)
V**(-1/2)                 :    0.101 sec (  0.0%)
Gamma(ia|P)               :   91.038 sec (  5.9%)
Gamma-Trafo               :    6.397 sec (  0.4%)
D(virtual)                :   44.165 sec (  2.8%)
D(internal)               :  104.954 sec (  6.7%)
W(virtual)                :   89.398 sec (  5.7%)
W(internal)               :  303.450 sec ( 19.5%)
L(virtual)                :   47.399 sec (  3.0%)
L(internal)               :    2.493 sec (  0.2%)
G(D)                      :   38.535 sec (  2.5%)
G(Z)                      :   38.695 sec (  2.5%)
Z-Vector Solution         :  337.950 sec ( 21.7%)
Z-Vector Solution         :  337.950 sec ( 21.7%)
3-Index Derivative 
+ Separable RIJ part      :   17.954 sec (  1.2%)
2-Index Derivative 
+ Separable RIJ part      :    0.101 sec (  0.0%)
Separable Gradient (COSX) :  295.617 sec ( 19.0%)


---------------------------------------
MP2 TOTAL ENERGY:    -3146.564403787 Eh
---------------------------------------

The final MP2 gradient
  0:  -0.00040624  -0.00024979  -0.00045437
  1:   0.00212673   0.00435524   0.00207176
  2:   0.00311797  -0.00201156   0.00328349
  3:  -0.00279562   0.00320640   0.00257460
  4:   0.00280434   0.00269733  -0.00299084
  5:  -0.00368465  -0.00367887   0.00351322
  6:   0.00341229  -0.00459838  -0.00363798
  7:  -0.00386786   0.00179328  -0.00396256
  8:   0.00047693   0.00001105  -0.00041997
  9:   0.00360864  -0.00054956  -0.00035456
 10:  -0.00063111   0.00334272  -0.00057558
 11:  -0.00080485  -0.00037526   0.00382284
 12:  -0.00399927   0.00110508   0.00106812
 13:   0.00054252   0.00021060  -0.00368455
 14:   0.00075715  -0.00343975   0.00102186
 15:  -0.00249599  -0.00463487  -0.00258730
 16:   0.00046560   0.00031817   0.00049104
 17:  -0.00319244   0.00432188   0.00315276
 18:   0.00376008   0.00389545  -0.00359779
 19:  -0.00280178  -0.00272859   0.00301460
 20:   0.00282103  -0.00322852  -0.00253485
 21:  -0.00314711   0.00191574  -0.00336125
 22:   0.00391918  -0.00174457   0.00413204

-----------------------------------
NORM OF THE MP2 GRADIENT:  0.023095
-----------------------------------

Entering the calculation of the dispersion correction...

Checking the input atom types...

Done


-------------------------------------------------------------------------------
                          DFT DISPERSION CORRECTION                            
                                                                               
                                DFTD3 V2.1  Rev 6                               
                          USING Becke-Johnson damping                          
-------------------------------------------------------------------------------
The B2PLYP functional is recognized
Active option DFTDOPT                   ...         4   

molecular C6(AA) [au] = 13722.401020 


            DFT-D V3
 parameters
 s6 scaling factor         :     0.6400 
 a1 scaling factor         :     0.3065 
 s8 scaling factor         :     0.9147 
 a2 scaling factor         :     5.0570 
 ad hoc parameters k1-k3   :    16.0000     1.3333    -4.0000 

 Edisp/kcal,au: -17.408740850368  -0.027742591487 
 E6   /kcal   :  -8.197440362 
 E8   /kcal   :  -9.211300489 
 % E8         :  52.911928369 

-------------------------   ----------------
Dispersion correction           -0.027742591
-------------------------   ----------------


-------------------------   --------------------
FINAL SINGLE POINT ENERGY     -3146.592146378850
-------------------------   --------------------


                            ***************************************
                            *     ORCA property calculations      *
                            ***************************************


  WARNING: The energy has been calculated at the MP2 level but the densities
           used in the property calculations are still SCF densities
           MP2 response densities have not been calculated 
           use %mp2 Density relaxed end
           or  %mp2 Density unrelaxed end

                                    ---------------------
                                    Active property flags
                                    ---------------------
   (+) Dipole Moment


------------------------------------------------------------------------------
                       ORCA ELECTRIC PROPERTIES CALCULATION
------------------------------------------------------------------------------

Dipole Moment Calculation                       ... on
Quadrupole Moment Calculation                   ... off
Polarizability Calculation                      ... off
GBWName                                         ... PbCl6NH3CH3-2_mp2_sp_0.orca.gbw
Electron density file                           ... PbCl6NH3CH3-2_mp2_sp_0.orca.scfp.tmp

-------------
DIPOLE MOMENT
-------------
                                X             Y             Z
Electronic contribution:      0.87869       0.20476      -0.97549
Nuclear contribution   :     -0.81329      -0.19768       0.93241
                        -----------------------------------------
Total Dipole Moment    :      0.06540       0.00708      -0.04308
                        -----------------------------------------
Magnitude (a.u.)       :      0.07863
Magnitude (Debye)      :      0.19987


                         *** MP2 UNRELAXED DENSITY ***

------------------------------------------------------------------------------
                       ORCA ELECTRIC PROPERTIES CALCULATION
------------------------------------------------------------------------------

Dipole Moment Calculation                       ... on
Quadrupole Moment Calculation                   ... off
Polarizability Calculation                      ... off
GBWName                                         ... PbCl6NH3CH3-2_mp2_sp_0.orca.gbw
Electron density file                           ... PbCl6NH3CH3-2_mp2_sp_0.orca.pmp2ur

-------------
DIPOLE MOMENT
-------------
                                X             Y             Z
Electronic contribution:      0.87858       0.20479      -0.97528
Nuclear contribution   :     -0.81329      -0.19768       0.93241
                        -----------------------------------------
Total Dipole Moment    :      0.06529       0.00712      -0.04287
                        -----------------------------------------
Magnitude (a.u.)       :      0.07843
Magnitude (Debye)      :      0.19934


                           *** MP2 RELAXED DENSITY ***

------------------------------------------------------------------------------
                       ORCA ELECTRIC PROPERTIES CALCULATION
------------------------------------------------------------------------------

Dipole Moment Calculation                       ... on
Quadrupole Moment Calculation                   ... off
Polarizability Calculation                      ... off
GBWName                                         ... PbCl6NH3CH3-2_mp2_sp_0.orca.gbw
Electron density file                           ... PbCl6NH3CH3-2_mp2_sp_0.orca.pmp2re

-------------
DIPOLE MOMENT
-------------
                                X             Y             Z
Electronic contribution:      0.87727       0.20455      -0.97442
Nuclear contribution   :     -0.81329      -0.19768       0.93241
                        -----------------------------------------
Total Dipole Moment    :      0.06398       0.00687      -0.04200
                        -----------------------------------------
Magnitude (a.u.)       :      0.07684
Magnitude (Debye)      :      0.19532


Timings for individual modules:

Sum of individual times         ...     1873.215 sec (=  31.220 min)
GTO integral calculation        ...        1.308 sec (=   0.022 min)   0.1 %
SCF iterations                  ...      315.481 sec (=   5.258 min)  16.8 %
MP2 module                      ...     1556.426 sec (=  25.940 min)  83.1 %
                             ****ORCA TERMINATED NORMALLY****
TOTAL RUN TIME: 0 days 0 hours 31 minutes 13 seconds 939 msec
