
                                 *****************
                                 * O   R   C   A *
                                 *****************

           --- An Ab Initio, DFT and Semiempirical electronic structure package ---

                  #######################################################
                  #                        -***-                        #
                  #  Department of molecular theory and spectroscopy    #
                  #              Directorship: Frank Neese              #
                  # Max Planck Institute for Chemical Energy Conversion #
                  #                  D-45470 Muelheim/Ruhr              #
                  #                       Germany                       #
                  #                                                     #
                  #                  All rights reserved                #
                  #                        -***-                        #
                  #######################################################


                         Program Version 3.0.3 - RELEASE   -


 With contributions from (in alphabetic order):
   Ute Becker             : Parallelization
   Dmytro Bykov           : SCF Hessian
   Dmitry Ganyushin       : Spin-Orbit,Spin-Spin,Magnetic field MRCI
   Andreas Hansen         : Spin unrestricted coupled pair/coupled cluster methods
   Dimitrios Liakos       : Extrapolation schemes; parallel MDCI
   Robert Izsak           : Overlap fitted RIJCOSX, COSX-SCS-MP3
   Christian Kollmar      : KDIIS, OOCD, Brueckner-CCSD(T), CCSD density
   Simone Kossmann        : Meta GGA functionals, TD-DFT gradient, OOMP2, MP2 Hessian
   Taras Petrenko         : DFT Hessian,TD-DFT gradient, ASA and ECA modules, normal mode analysis, Resonance Raman, ABS, FL, XAS/XES, NRVS
   Christoph Reimann      : Effective Core Potentials
   Michael Roemelt        : Restricted open shell CIS
   Christoph Riplinger    : Improved optimizer, TS searches, QM/MM, DLPNO-CCSD
   Barbara Sandhoefer     : DKH picture change effects
   Igor Schapiro          : Molecular dynamics
   Kantharuban Sivalingam : CASSCF convergence, NEVPT2
   Boris Wezisla          : Elementary symmetry handling
   Frank Wennmohs         : Technical directorship


 We gratefully acknowledge several colleagues who have allowed us to
 interface, adapt or use parts of their codes:
   Stefan Grimme, W. Hujo, H. Kruse, T. Risthaus : VdW corrections, initial TS optimization,
                                                   DFT functionals, gCP
   Ed Valeev                                     : LibInt (2-el integral package), F12 methods
   Garnet Chan, S. Sharma, R. Olivares           : DMRG
   Ulf Ekstrom                                   : XCFun DFT Library
   Mihaly Kallay                                 : mrcc  (arbitrary order and MRCC methods)
   Andreas Klamt, Michael Diedenhofen            : otool_cosmo (COSMO solvation model)
   Frank Weinhold                                : gennbo (NPA and NBO analysis)
   Christopher J. Cramer and Donald G. Truhlar   : smd solvation model


 Your calculation uses the libint2 library for the computation of 2-el integrals
 For citations please refer to: http://libint.valeyev.net

 This ORCA versions uses:
   CBLAS   interface :  Fast vector & matrix operations
   LAPACKE interface :  Fast linear algebra routines
   SCALAPACK package :  Parallel linear algebra routines


Your calculation utilizes the basis: Ahlrichs-TZV
Cite in your paper:
H - Kr: A. Schaefer, H. Horn and R. Ahlrichs, J. Chem. Phys. 97, 2571 (1992).

The def2-TZV basis will be loaded
Cite in your paper:
 	F. Weigend, R. Ahlrichs, Phys. Chem. Chem. Phys. 2005, 7, 3297.

Your calculation utilizes the atom-pairwise dispersion correction
with the Becke-Johnson damping scheme (D3BJ)
Cite in your paper:
S.Grimme, S.Ehrlich, L.Goerigk, J Comput Chem, (2011), 32, 1456–1465 
S.Grimme, J.Antony, S.Ehrlich and H.Krieg, J.Chem.Phys., 132, (2010), 154104 
   

================================================================================
                                        WARNINGS
                       Please study these warnings very carefully!
================================================================================

WARNING: The RI method has been chosen with no auxiliary basis (AUX or GTOAUX in BASIS block)
        Standard TZV/J expansion basis used (GTOAUX=TZV_J)

Now building the actual basis set
cite the ECPs for Pb [SD(60,MDF)] as follows:
  B. Metz, H. Stoll, M. Dolg, J. Chem. Phys. 113, 2563 (2000).

ECP parameters for Pb [SD(60,MDF)] have been obtained from:
  pseudopotential library of the Stuttgart/Cologne group
  http://www.theochem.uni-stuttgart.de/pseudopotentials/

cite the ECP basis sets for Pb [DEF2-TZVP] as follows:
  F. Weigend, R. Ahlrichs; Phys. Chem. Chem. Phys. 7, 3297(2005).

ECP basis sets for Pb [DEF2-TZVP] have been obtained from:
  Turbomole basis set library
  ftp://ftp.chemie.uni-karlsruhe.de/pub/basen/



INFO   : the flag for use of LIBINT has been found!

================================================================================
                                       INPUT FILE
================================================================================
NAME = PbMACl3_mp2_10.orca
|  1> ! RIJCOSX RI-B2PLYP D3BJ def2-TZVP ECP{def2-TZVP} TIGHTSCF Grid5 FinalGrid6 SlowConv MORead
|  2> %method
|  3>  RunTyp Gradient
|  4>  end
|  5> %maxcore 1000
|  6> %moinp "previous.gbw"
|  7> *xyz 0 1
|  8> C 2.905719 3.576013 2.873338
|  9> N 2.134625 2.614408 2.046990
| 10> H 3.548796 3.021424 3.560517
| 11> H 2.209179 4.197444 3.440826
| 12> H 3.515705 4.204875 2.220874
| 13> H 1.516852 1.975028 2.601630
| 14> H 2.717740 1.973704 1.464858
| 15> H 1.486857 3.059076 1.361735
| 16> Pb 0.414987 0.131547 0.209487
| 17> Cl 3.286120 0.268387 0.089874
| 18> Cl 0.214503 2.735046 -0.108798
| 19> Cl 0.955877 0.320768 2.851419
| 20> *
| 21> 
| 22>                          ****END OF INPUT****
================================================================================

                     *******************************
                     * Energy+Gradient Calculation *
                     *******************************

---------------------------------
CARTESIAN COORDINATES (ANGSTROEM)
---------------------------------
  C      2.905719    3.576013    2.873338
  N      2.134625    2.614408    2.046990
  H      3.548796    3.021424    3.560517
  H      2.209179    4.197444    3.440826
  H      3.515705    4.204875    2.220874
  H      1.516852    1.975028    2.601630
  H      2.717740    1.973704    1.464858
  H      1.486857    3.059076    1.361735
  Pb     0.414987    0.131547    0.209487
  Cl     3.286120    0.268387    0.089874
  Cl     0.214503    2.735046   -0.108798
  Cl     0.955877    0.320768    2.851419

----------------------------
CARTESIAN COORDINATES (A.U.)
----------------------------
  NO LB      ZA    FRAG    MASS        X           Y           Z
   0 C     6.0000    0    12.011          5.491013132131525          6.757685221342137          5.429821910189021
   1 N     7.0000    0    14.007          4.033856648621652          4.940515122332791          3.868250498875463
   2 H     1.0000    0     1.008          6.706252545155202          5.709663894456884          6.728402025170893
   3 H     1.0000    0     1.008          4.174743290810016          7.932019622470954          6.502218814475724
   4 H     1.0000    0     1.008          6.643719617657614          7.946062177372124          4.196843637946225
   5 H     1.0000    0     1.008          2.866434865690719          3.732262026826222          4.916368201793546
   6 H     1.0000    0     1.008          5.135784303203143          3.729760029424910          2.768180445083617
   7 H     1.0000    0     1.008          2.809752530303751          5.780815862851287          2.573306216975256
   8 Pb   22.0000*   0   207.200  0.784211779137578  0.248587803738939  0.395873058616761
   9 Cl   17.0000    0    35.453          6.209866843201303          0.507177927904723          0.169837246560039
  10 Cl   17.0000    0    35.453          0.405351924904510          5.168487903676784         -0.205598423918364
  11 Cl   17.0000    0    35.453          1.806345747714244          0.606163672525652          5.388401003059601
* core charge reduced due to ECP

--------------------------------
INTERNAL COORDINATES (ANGSTROEM)
--------------------------------
 C      0   0   0   0.000000     0.000     0.000
 N      1   0   0   1.483955     0.000     0.000
 H      1   2   0   1.092397   109.099     0.000
 H      1   2   3   1.092423   109.061   240.173
 H      1   2   3   1.092364   109.305   120.114
 H      2   1   3   1.047891   114.015    60.210
 H      2   1   3   1.043744   114.712   299.789
 H      2   1   3   1.042549   114.361   179.707
 Pb     7   2   1   3.205023    99.781   175.863
 Cl     7   2   1   2.263127   160.342   171.726
 Cl     8   2   1   1.971382   145.206   175.948
 Cl     6   2   1   1.764558   146.550   225.278

---------------------------
INTERNAL COORDINATES (A.U.)
---------------------------
 C      0   0   0   0.000000     0.000     0.000
 N      1   0   0   2.804268     0.000     0.000
 H      1   2   0   2.064332   109.099     0.000
 H      1   2   3   2.064379   109.061   240.173
 H      1   2   3   2.064269   109.305   120.114
 H      2   1   3   1.980227   114.015    60.210
 H      2   1   3   1.972391   114.712   299.789
 H      2   1   3   1.970131   114.361   179.707
 Pb     7   2   1   6.056615    99.781   175.863
 Cl     7   2   1   4.276690   160.342   171.726
 Cl     8   2   1   3.725372   145.206   175.948
 Cl     6   2   1   3.334531   146.550   225.278

---------------------
BASIS SET INFORMATION
---------------------
There are 5 groups of distinct atoms

 Group   1 Type C   : 11s6p2d1f contracted to 5s3p2d1f pattern {62111/411/11/1}
 Group   2 Type N   : 11s6p2d1f contracted to 5s3p2d1f pattern {62111/411/11/1}
 Group   3 Type H   : 5s1p contracted to 3s1p pattern {311/1}
 Group   4 Type Pb  : 10s9p8d2f contracted to 6s5p3d2f pattern {421111/33111/611/11}
 Group   5 Type Cl  : 14s9p3d1f contracted to 5s5p2d1f pattern {73211/51111/21/1}

Atom   0C    basis set group =>   1
Atom   1N    basis set group =>   2
Atom   2H    basis set group =>   3
Atom   3H    basis set group =>   3
Atom   4H    basis set group =>   3
Atom   5H    basis set group =>   3
Atom   6H    basis set group =>   3
Atom   7H    basis set group =>   3
Atom   8Pb   basis set group =>   4
Atom   9Cl   basis set group =>   5
Atom  10Cl   basis set group =>   5
Atom  11Cl   basis set group =>   5
-------------------------------
AUXILIARY BASIS SET INFORMATION
-------------------------------
There are 5 groups of distinct atoms

 Group   1 Type C   : 12s5p4d2f1g contracted to 6s4p3d1f1g pattern {711111/2111/211/2/1}
 Group   2 Type N   : 12s5p4d2f1g contracted to 6s4p3d1f1g pattern {711111/2111/211/2/1}
 Group   3 Type H   : 5s2p1d contracted to 3s1p1d pattern {311/2/1}
 Group   4 Type Pb  : 31s12p8d6f3g contracted to 31s12p8d6f3g pattern {1111111111111111111111111111111/111111111111/11111111/111111/111}
 Group   5 Type Cl  : 14s5p5d2f1g contracted to 8s4p3d1f1g pattern {71111111/2111/311/2/1}

Atom   0C    basis set group =>   1
Atom   1N    basis set group =>   2
Atom   2H    basis set group =>   3
Atom   3H    basis set group =>   3
Atom   4H    basis set group =>   3
Atom   5H    basis set group =>   3
Atom   6H    basis set group =>   3
Atom   7H    basis set group =>   3
Atom   8Pb   basis set group =>   4
Atom   9Cl   basis set group =>   5
Atom  10Cl   basis set group =>   5
Atom  11Cl   basis set group =>   5

-------------------------
ECP PARAMETER INFORMATION
-------------------------

 Group 1, Type Pb ECP SD(60,MDF) (replacing 60 core electrons, lmax=5)

Atom   8Pb   ECP group =>   1


------------------------------------------------------------------------------
                           ORCA GTO INTEGRAL CALCULATION
                           -- RI-GTO INTEGRALS CHOSEN --
------------------------------------------------------------------------------

                         BASIS SET STATISTICS AND STARTUP INFO

Gaussian basis set:
 # of primitive gaussian shells          ...  186
 # of primitive gaussian functions       ...  420
 # of contracted shells                  ...  101
 # of contracted basis functions         ...  259
 Highest angular momentum                ...    3
 Maximum contraction depth               ...    7
Auxiliary gaussian basis set:
 # of primitive gaussian shells          ...  237
 # of primitive gaussian functions       ...  643
 # of contracted shells                  ...  171
 # of contracted aux-basis functions     ...  493
 Highest angular momentum                ...    4
 Maximum contraction depth               ...    7
Ratio of auxiliary to basis functions    ...  1.90
Integral package used                  ... LIBINT
 One Electron integrals                  
   ECP integrals                         ... done
 Ordering auxiliary basis shells         ... done
 Integral threshhold             Thresh  ...  2.500e-11
 Primitive cut-off               TCut    ...  2.500e-12
 Pre-screening matrix                    ... done
 Shell pair data                         ... 
 Ordering of the shell pairs             ... done (   0.001 sec) 4478 of 5151 pairs
 Determination of significant pairs      ... done (   0.000 sec)
 Creation of shell pair data             ... done (   0.001 sec)
 Storage of shell pair data              ... done (   0.001 sec)
 Shell pair data done in (   0.003 sec)
 Computing two index integrals           ... done
 Cholesky decomposition of the V-matrix  ... done


Timings:
 Total evaluation time                   ...   0.671 sec (  0.011 min)
 One electron matrix time                ...   0.350 sec (  0.006 min) = 52.2%
 Schwartz matrix evaluation time         ...   0.269 sec (  0.004 min) = 40.1%
 Two index repulsion integral time       ...   0.009 sec (  0.000 min) =  1.3%
 Cholesky decomposition of V             ...   0.009 sec (  0.000 min) =  1.4%
 Three index repulsion integral time     ...   0.000 sec (  0.000 min) =  0.0%

-------------------------------------------------------------------------------
                                 ORCA SCF
-------------------------------------------------------------------------------

------------
SCF SETTINGS
------------
Hamiltonian:
 Density Functional     Method          .... DFT(GTOs)
 Exchange Functional    Exchange        .... B88
   X-Alpha parameter    XAlpha          ....  0.666667
   Becke's b parameter  XBeta           ....  0.004200
 Correlation Functional Correlation     .... LYP
 LDA part of GGA corr.  LDAOpt          .... VWN-3
 Gradients option       PostSCFGGA      .... off
 Hybrid DFT is turned on
   Fraction HF Exchange ScalHFX         ....  0.530000
   Scaling of DF-GGA-X  ScalDFX         ....  0.470000
   Scaling of DF-GGA-C  ScalDFC         ....  0.730000
   Scaling of DF-LDA-C  ScalLDAC        ....  0.730000
   Perturbative correction              ....  0.270000
 RI-approximation to the Coulomb term is turned on
   Number of auxiliary basis functions  .... 493
   RIJ-COSX (HFX calculated with COS-X)).... on


General Settings:
 Integral files         IntName         .... PbMACl3_mp2_10.orca
 Hartree-Fock type      HFTyp           .... RHF
 Total Charge           Charge          ....    0
 Multiplicity           Mult            ....    1
 Number of Electrons    NEL             ....   92
 Basis Dimension        Dim             ....  259
 Nuclear Repulsion      ENuc            ....    592.4960379515 Eh

Convergence Acceleration:
 DIIS                   CNVDIIS         .... on
   Start iteration      DIISMaxIt       ....     0
   Startup error        DIISStart       ....  0.200000
   # of expansion vecs  DIISMaxEq       ....     5
   Bias factor          DIISBfac        ....   1.050
   Max. coefficient     DIISMaxC        ....  10.000
 Newton-Raphson         CNVNR           .... off
 SOSCF                  CNVSOSCF        .... on
   Start iteration      SOSCFMaxIt      ....   150
   Startup grad/error   SOSCFStart      ....  0.001000
 Level Shifting         CNVShift        .... on
   Level shift para.    LevelShift      ....    0.2500
   Turn off err/grad.   ShiftErr        ....    0.0000
 Zerner damping         CNVZerner       .... off
 Static damping         CNVDamp         .... on
   Fraction old density DampFac         ....    0.8500
   Max. Damping (<1)    DampMax         ....    0.9800
   Min. Damping (>=0)   DampMin         ....    0.0000
   Turn off err/grad.   DampErr         ....    0.0300
 Fernandez-Rico         CNVRico         .... off

SCF Procedure:
 Maximum # iterations   MaxIter         ....   125
 SCF integral mode      SCFMode         .... Direct
   Integral package                     .... LIBINT
 Reset frequeny         DirectResetFreq ....    20
 Integral Threshold     Thresh          ....  2.500e-11 Eh
 Primitive CutOff       TCut            ....  2.500e-12 Eh

Convergence Tolerance:
 Convergence Check Mode ConvCheckMode   .... Total+1el-Energy
 Energy Change          TolE            ....  1.000e-08 Eh
 1-El. energy change                    ....  1.000e-05 Eh
 Orbital Gradient       TolG            ....  1.000e-05
 Orbital Rotation angle TolX            ....  1.000e-05
 DIIS Error             TolErr          ....  5.000e-07


Diagonalization of the overlap matrix:
Smallest eigenvalue                        ... 1.095e-03
Time for diagonalization                   ...    0.020 sec
Threshold for overlap eigenvalues          ... 1.000e-08
Number of eigenvalues below threshold      ... 0
Time for construction of square roots      ...    0.009 sec
Total time needed                          ...    0.030 sec

---------------------
INITIAL GUESS: MOREAD
---------------------
Guess MOs are being read from file: previous.gbw
Input Geometry matches current geometry (good)
Input basis set matches current basis set (good)
MOs were renormalized
MOs were reorthogonalized (Schmidt)
                      ------------------
                      INITIAL GUESS DONE (   0.2 sec)
                      ------------------
-------------------
DFT GRID GENERATION
-------------------

General Integration Accuracy     IntAcc      ...  5.010
Radial Grid Type                 RadialGrid  ... Gauss-Chebyshev
Angular Grid (max. acc.)         AngularGrid ... Lebedev-434
Angular grid pruning method      GridPruning ... 3 (G Style)
Weight generation scheme         WeightScheme... Becke
Basis function cutoff            BFCut       ...    1.0000e-11
Integration weight cutoff        WCut        ...    1.0000e-14
Grids for H and He will be reduced by one unit

# of grid points (after initial pruning)     ... 115882 (   0.0 sec)
# of grid points (after weights+screening)   ... 108575 (   0.3 sec)
nearest neighbour list constructed           ...    0.0 sec
Grid point re-assignment to atoms done       ...    0.0 sec
Grid point division into batches done        ...    1.2 sec
Reduced shell lists constructed in    3.0 sec

Total number of grid points                  ...   108575
Total number of batches                      ...     1703
Average number of points per batch           ...       63
Average number of grid points per atom       ...     9048
Average number of shells per batch           ...    55.37 (54.82%)
Average number of basis functions per batch  ...   146.37 (56.51%)
Average number of large shells per batch     ...    41.95 (75.76%)
Average number of large basis fcns per batch ...   107.66 (73.56%)
Maximum spatial batch extension              ...  32.17, 33.20, 33.97 au
Average spatial batch extension              ...   2.41,  2.38,  2.42 au

Time for grid setup =    3.368 sec

--------------------
COSX GRID GENERATION
--------------------

General Integration Accuracy     IntAcc      ...  3.340
Radial Grid Type                 RadialGrid  ... Gauss-Chebyshev
Angular Grid (max. acc.)         AngularGrid ... Lebedev-50
Angular grid pruning method      GridPruning ... 3 (G Style)
Weight generation scheme         WeightScheme... Becke
Basis function cutoff            BFCut       ...    1.0000e-11
Integration weight cutoff        WCut        ...    1.0000e-14
Grids for H and He will be reduced by one unit

# of grid points (after initial pruning)     ...   6578 (   0.0 sec)
# of grid points (after weights+screening)   ...   6175 (   0.0 sec)
nearest neighbour list constructed           ...    0.0 sec
Grid point re-assignment to atoms done       ...    0.0 sec
Grid point division into batches done        ...    0.0 sec
Reduced shell lists constructed in    0.1 sec

Total number of grid points                  ...     6175
Total number of batches                      ...      103
Average number of points per batch           ...       59
Average number of grid points per atom       ...      515
Average number of shells per batch           ...    67.09 (66.42%)
Average number of basis functions per batch  ...   180.49 (69.69%)
Average number of large shells per batch     ...    52.39 (78.10%)
Average number of large basis fcns per batch ...   136.80 (75.79%)
Maximum spatial batch extension              ...  36.53, 27.34, 31.01 au
Average spatial batch extension              ...   6.59,  6.20,  6.20 au

Overlap Fitting                  UseSFitting ... on
Constructing numerical overlap ... done (      0.1 sec)
Inverting numerical overlap    ... done (      0.0 sec)
Obtaining analytic overlap     ... done (      0.0 sec)
Final contraction and storage  ... done (      0.0 sec)


General Integration Accuracy     IntAcc      ...  3.670
Radial Grid Type                 RadialGrid  ... Gauss-Chebyshev
Angular Grid (max. acc.)         AngularGrid ... Lebedev-50
Angular grid pruning method      GridPruning ... 3 (G Style)
Weight generation scheme         WeightScheme... Becke
Basis function cutoff            BFCut       ...    1.0000e-11
Integration weight cutoff        WCut        ...    1.0000e-14
Grids for H and He will be reduced by one unit

# of grid points (after initial pruning)     ...   8124 (   0.0 sec)
# of grid points (after weights+screening)   ...   7609 (   0.0 sec)
nearest neighbour list constructed           ...    0.0 sec
Grid point re-assignment to atoms done       ...    0.0 sec
Grid point division into batches done        ...    0.0 sec
Reduced shell lists constructed in    0.1 sec

Total number of grid points                  ...     7609
Total number of batches                      ...      125
Average number of points per batch           ...       60
Average number of grid points per atom       ...      634
Average number of shells per batch           ...    66.40 (65.75%)
Average number of basis functions per batch  ...   178.61 (68.96%)
Average number of large shells per batch     ...    51.30 (77.26%)
Average number of large basis fcns per batch ...   133.40 (74.69%)
Maximum spatial batch extension              ...  37.97, 26.94, 32.28 au
Average spatial batch extension              ...   6.03,  5.66,  5.91 au

Overlap Fitting                  UseSFitting ... on
Constructing numerical overlap ... done (      0.1 sec)
Inverting numerical overlap    ... done (      0.0 sec)
Obtaining analytic overlap     ... done (      0.0 sec)
Final contraction and storage  ... done (      0.0 sec)


General Integration Accuracy     IntAcc      ...  4.010
Radial Grid Type                 RadialGrid  ... Gauss-Chebyshev
Angular Grid (max. acc.)         AngularGrid ... Lebedev-110
Angular grid pruning method      GridPruning ... 3 (G Style)
Weight generation scheme         WeightScheme... Becke
Basis function cutoff            BFCut       ...    1.0000e-11
Integration weight cutoff        WCut        ...    1.0000e-14
Grids for H and He will be reduced by one unit

# of grid points (after initial pruning)     ...  15170 (   0.0 sec)
# of grid points (after weights+screening)   ...  14356 (   0.0 sec)
nearest neighbour list constructed           ...    0.0 sec
Grid point re-assignment to atoms done       ...    0.0 sec
Grid point division into batches done        ...    0.0 sec
Reduced shell lists constructed in    0.3 sec

Total number of grid points                  ...    14356
Total number of batches                      ...      229
Average number of points per batch           ...       62
Average number of grid points per atom       ...     1196
Average number of shells per batch           ...    62.53 (61.91%)
Average number of basis functions per batch  ...   167.73 (64.76%)
Average number of large shells per batch     ...    48.00 (76.77%)
Average number of large basis fcns per batch ...   124.94 (74.49%)
Maximum spatial batch extension              ...  39.26, 31.01, 34.29 au
Average spatial batch extension              ...   5.13,  4.88,  5.00 au

Overlap Fitting                  UseSFitting ... on
Constructing numerical overlap ... done (      0.2 sec)
Inverting numerical overlap    ... done (      0.0 sec)
Obtaining analytic overlap     ... done (      0.0 sec)
Final contraction and storage  ... done (      0.0 sec)

Time for X-Grid setup             =    1.204 sec
--------------
SCF ITERATIONS
--------------
ITER       Energy         Delta-E        Max-DP      RMS-DP      [F,P]     Damp
               ***  Starting incremental Fock matrix formation  ***
  0  -1669.0024008485   0.000000000000 0.03707860  0.00025075  0.0682009 0.8500
  1  -1669.0052425092  -0.002841660710 0.03370841  0.00024260  0.0580573 0.8500
                               ***Turning on DIIS***
  2  -1669.0077615323  -0.002519023034 0.02883590  0.00021101  0.0494148 0.8500
  3  -1669.0099246718  -0.002163139586 0.02440729  0.00017780  0.0420519 0.8500
  4  -1669.0117819030  -0.001857231123 0.02098230  0.00015181  0.0357535 0.8500
  5  -1669.0133726312  -0.001590728220 0.01830024  0.00013224  0.0303768 0.8500
  6  -1669.0147404204  -0.001367789175 0.10603256  0.00076809  0.0258081 0.0000
                      *** Initiating the SOSCF procedure ***
                           *** Shutting down DIIS ***
                      *** Re-Reading the Fockian *** 
                      *** Removing any level shift *** 
ITER      Energy       Delta-E        Grad      Rot      Max-DP    RMS-DP
  7  -1669.02294650  -0.0082060836  0.000609  0.000609  0.002898  0.000028
               *** Restarting incremental Fock matrix formation ***
  8  -1669.02296056  -0.0000140606  0.000240  0.000705  0.000825  0.000015
  9  -1669.02296308  -0.0000025117  0.000073  0.000371  0.000805  0.000008
 10  -1669.02296338  -0.0000003067  0.000047  0.000063  0.000223  0.000002
 11  -1669.02296342  -0.0000000393  0.000008  0.000021  0.000042  0.000001
 12  -1669.02296342  -0.0000000022  0.000003  0.000007  0.000025  0.000000
                  ***Gradient check signals convergence***
              ***Rediagonalizing the Fockian in SOSCF/NRSCF***

               *****************************************************
               *                     SUCCESS                       *
               *           SCF CONVERGED AFTER  13 CYCLES          *
               *****************************************************

Old exchange energy                            =    -59.189045822 Eh
New exchange energy                            =    -59.192847252 Eh
Exchange energy change after final integration =     -0.003801430 Eh
Total energy after final integration           =  -1669.026764844 Eh
Final COS-X integration done in                =    29.592 sec

----------------
TOTAL SCF ENERGY
----------------

Total Energy       :        -1669.02676484 Eh          -45416.52720 eV

Components:
Nuclear Repulsion  :          592.49603795 Eh           16122.63685 eV
Electronic Energy  :        -2261.52280280 Eh          -61539.16405 eV

One Electron Energy:        -3555.69322409 Eh          -96755.33157 eV
Two Electron Energy:         1294.17042129 Eh           35216.16752 eV

Virial components:
Potential Energy   :        -3206.65687893 Eh          -87257.56976 eV
Kinetic Energy     :         1537.63011408 Eh           41841.04256 eV
Virial Ratio       :            2.08545400


DFT components:
N(Alpha)           :       46.000039197513 electrons
N(Beta)            :       46.000039197513 electrons
N(Total)           :       92.000078395025 electrons
E(X)               :      -52.570562004665 Eh       
E(C)               :       -2.606332926281 Eh       
E(XC)              :      -55.176894930946 Eh       

---------------
SCF CONVERGENCE
---------------

  Last Energy change         ...    1.0482e-08  Tolerance :   1.0000e-08
  Last MAX-Density change    ...    1.2013e-13  Tolerance :   1.0000e-07
  Last RMS-Density change    ...    1.0734e-15  Tolerance :   5.0000e-09
  Last Orbital Gradient      ...    4.8780e-07  Tolerance :   1.0000e-05
  Last Orbital Rotation      ...    1.2460e-06  Tolerance :   1.0000e-05

             **** THE GBW FILE WAS UPDATED (PbMACl3_mp2_10.orca.gbw) ****
             **** DENSITY FILE WAS UPDATED (PbMACl3_mp2_10.orca.scfp.tmp) ****
             **** ENERGY FILE WAS UPDATED (PbMACl3_mp2_10.orca.en.tmp) ****
----------------
ORBITAL ENERGIES
----------------

  NO   OCC          E(Eh)            E(eV) 
   0   2.0000    -102.869544     -2799.2226 
   1   2.0000    -102.860942     -2798.9885 
   2   2.0000    -102.833208     -2798.2339 
   3   2.0000     -14.920383      -406.0043 
   4   2.0000     -10.687942      -290.8337 
   5   2.0000      -9.877065      -268.7686 
   6   2.0000      -9.869408      -268.5602 
   7   2.0000      -9.838642      -267.7231 
   8   2.0000      -7.514205      -204.4719 
   9   2.0000      -7.512405      -204.4229 
  10   2.0000      -7.512049      -204.4133 
  11   2.0000      -7.506355      -204.2583 
  12   2.0000      -7.504915      -204.2191 
  13   2.0000      -7.504218      -204.2002 
  14   2.0000      -7.475926      -203.4303 
  15   2.0000      -7.474220      -203.3839 
  16   2.0000      -7.473760      -203.3714 
  17   2.0000      -5.833479      -158.7370 
  18   2.0000      -3.604703       -98.0890 
  19   2.0000      -3.603437       -98.0545 
  20   2.0000      -3.602804       -98.0373 
  21   2.0000      -1.111739       -30.2519 
  22   2.0000      -0.997806       -27.1517 
  23   2.0000      -0.994197       -27.0535 
  24   2.0000      -0.991391       -26.9771 
  25   2.0000      -0.990855       -26.9625 
  26   2.0000      -0.989739       -26.9322 
  27   2.0000      -0.897626       -24.4256 
  28   2.0000      -0.885927       -24.1073 
  29   2.0000      -0.842882       -22.9360 
  30   2.0000      -0.833242       -22.6737 
  31   2.0000      -0.642994       -17.4968 
  32   2.0000      -0.639382       -17.3985 
  33   2.0000      -0.577708       -15.7202 
  34   2.0000      -0.569246       -15.4900 
  35   2.0000      -0.503439       -13.6993 
  36   2.0000      -0.499865       -13.6020 
  37   2.0000      -0.391144       -10.6436 
  38   2.0000      -0.375773       -10.2253 
  39   2.0000      -0.373639       -10.1672 
  40   2.0000      -0.358930        -9.7670 
  41   2.0000      -0.353597        -9.6219 
  42   2.0000      -0.349399        -9.5076 
  43   2.0000      -0.325725        -8.8634 
  44   2.0000      -0.323620        -8.8062 
  45   2.0000      -0.317199        -8.6314 
  46   0.0000      -0.034890        -0.9494 
  47   0.0000      -0.020480        -0.5573 
  48   0.0000      -0.014973        -0.4074 
  49   0.0000       0.056282         1.5315 
  50   0.0000       0.107782         2.9329 
  51   0.0000       0.112307         3.0560 
  52   0.0000       0.121098         3.2952 
  53   0.0000       0.128297         3.4911 
  54   0.0000       0.132127         3.5954 
  55   0.0000       0.137605         3.7444 
  56   0.0000       0.158846         4.3224 
  57   0.0000       0.170220         4.6319 
  58   0.0000       0.190175         5.1749 
  59   0.0000       0.227221         6.1830 
  60   0.0000       0.231120         6.2891 
  61   0.0000       0.235049         6.3960 
  62   0.0000       0.259253         7.0546 
  63   0.0000       0.266816         7.2604 
  64   0.0000       0.275102         7.4859 
  65   0.0000       0.279627         7.6090 
  66   0.0000       0.302275         8.2253 
  67   0.0000       0.318199         8.6586 
  68   0.0000       0.344066         9.3625 
  69   0.0000       0.359728         9.7887 
  70   0.0000       0.404218        10.9993 
  71   0.0000       0.412663        11.2291 
  72   0.0000       0.421623        11.4730 
  73   0.0000       0.426553        11.6071 
  74   0.0000       0.431045        11.7293 
  75   0.0000       0.441149        12.0043 
  76   0.0000       0.450305        12.2534 
  77   0.0000       0.462510        12.5855 
  78   0.0000       0.471791        12.8381 
  79   0.0000       0.479352        13.0438 
  80   0.0000       0.491051        13.3622 
  81   0.0000       0.497045        13.5253 
  82   0.0000       0.512348        13.9417 
  83   0.0000       0.515445        14.0260 
  84   0.0000       0.522455        14.2167 
  85   0.0000       0.524874        14.2825 
  86   0.0000       0.533505        14.5174 
  87   0.0000       0.544274        14.8105 
  88   0.0000       0.560282        15.2460 
  89   0.0000       0.568261        15.4632 
  90   0.0000       0.572588        15.5809 
  91   0.0000       0.580280        15.7902 
  92   0.0000       0.588283        16.0080 
  93   0.0000       0.598133        16.2760 
  94   0.0000       0.602764        16.4020 
  95   0.0000       0.638160        17.3652 
  96   0.0000       0.662290        18.0218 
  97   0.0000       0.673733        18.3332 
  98   0.0000       0.702814        19.1246 
  99   0.0000       0.715381        19.4665 
 100   0.0000       0.722920        19.6717 
 101   0.0000       0.740559        20.1516 
 102   0.0000       0.749239        20.3878 
 103   0.0000       0.770270        20.9601 
 104   0.0000       0.790609        21.5136 
 105   0.0000       0.799732        21.7618 
 106   0.0000       0.807915        21.9845 
 107   0.0000       0.818489        22.2722 
 108   0.0000       0.833003        22.6672 
 109   0.0000       0.851498        23.1705 
 110   0.0000       0.856079        23.2951 
 111   0.0000       0.889586        24.2069 
 112   0.0000       0.904014        24.5995 
 113   0.0000       0.934643        25.4329 
 114   0.0000       0.951320        25.8867 
 115   0.0000       0.968664        26.3587 
 116   0.0000       1.006788        27.3961 
 117   0.0000       1.040604        28.3163 
 118   0.0000       1.044751        28.4291 
 119   0.0000       1.074039        29.2261 
 120   0.0000       1.081185        29.4205 
 121   0.0000       1.100744        29.9528 
 122   0.0000       1.114510        30.3274 
 123   0.0000       1.203677        32.7537 
 124   0.0000       1.215094        33.0644 
 125   0.0000       1.227816        33.4106 
 126   0.0000       1.294727        35.2313 
 127   0.0000       1.305708        35.5301 
 128   0.0000       1.412405        38.4335 
 129   0.0000       1.426766        38.8243 
 130   0.0000       1.515787        41.2467 
 131   0.0000       1.583817        43.0979 
 132   0.0000       1.597499        43.4701 
 133   0.0000       1.615236        43.9528 
 134   0.0000       1.629894        44.3517 
 135   0.0000       1.658436        45.1283 
 136   0.0000       1.747714        47.5577 
 137   0.0000       1.803675        49.0805 
 138   0.0000       1.809604        49.2418 
 139   0.0000       1.891880        51.4807 
 140   0.0000       1.901467        51.7415 
 141   0.0000       1.915562        52.1251 
 142   0.0000       1.921922        52.2982 
 143   0.0000       1.932012        52.5727 
 144   0.0000       1.953011        53.1441 
 145   0.0000       1.957624        53.2697 
 146   0.0000       1.971182        53.6386 
 147   0.0000       1.972970        53.6872 
 148   0.0000       1.979782        53.8726 
 149   0.0000       1.989945        54.1492 
 150   0.0000       2.006490        54.5994 
 151   0.0000       2.014686        54.8224 
 152   0.0000       2.040377        55.5215 
 153   0.0000       2.055024        55.9201 
 154   0.0000       2.067010        56.2462 
 155   0.0000       2.094571        56.9962 
 156   0.0000       2.106562        57.3225 
 157   0.0000       2.110922        57.4411 
 158   0.0000       2.119854        57.6842 
 159   0.0000       2.125993        57.8512 
 160   0.0000       2.146758        58.4163 
 161   0.0000       2.150804        58.5263 
 162   0.0000       2.158526        58.7365 
 163   0.0000       2.168750        59.0147 
 164   0.0000       2.183166        59.4070 
 165   0.0000       2.187668        59.5295 
 166   0.0000       2.194319        59.7104 
 167   0.0000       2.204952        59.9998 
 168   0.0000       2.209233        60.1163 
 169   0.0000       2.232593        60.7519 
 170   0.0000       2.244623        61.0793 
 171   0.0000       2.250631        61.2428 
 172   0.0000       2.258902        61.4679 
 173   0.0000       2.271341        61.8063 
 174   0.0000       2.274741        61.8989 
 175   0.0000       2.282992        62.1234 
 176   0.0000       2.288587        62.2756 
 177   0.0000       2.297026        62.5053 
 178   0.0000       2.306073        62.7514 
 179   0.0000       2.316798        63.0433 
 180   0.0000       2.333250        63.4910 
 181   0.0000       2.345661        63.8287 
 182   0.0000       2.372232        64.5517 
 183   0.0000       2.384928        64.8972 
 184   0.0000       2.390922        65.0603 
 185   0.0000       2.394218        65.1500 
 186   0.0000       2.405628        65.4605 
 187   0.0000       2.413485        65.6743 
 188   0.0000       2.424854        65.9836 
 189   0.0000       2.429992        66.1234 
 190   0.0000       2.439202        66.3741 
 191   0.0000       2.445128        66.5353 
 192   0.0000       2.459331        66.9218 
 193   0.0000       2.460763        66.9608 
 194   0.0000       2.470246        67.2188 
 195   0.0000       2.493269        67.8453 
 196   0.0000       2.510204        68.3061 
 197   0.0000       2.544505        69.2395 
 198   0.0000       2.610301        71.0299 
 199   0.0000       2.619184        71.2716 
 200   0.0000       2.644598        71.9632 
 201   0.0000       2.653699        72.2108 
 202   0.0000       2.677557        72.8600 
 203   0.0000       2.734458        74.4084 
 204   0.0000       2.793483        76.0145 
 205   0.0000       2.796315        76.0916 
 206   0.0000       2.827171        76.9312 
 207   0.0000       2.839637        77.2705 
 208   0.0000       2.898759        78.8792 
 209   0.0000       2.909037        79.1589 
 210   0.0000       3.024088        82.2896 
 211   0.0000       3.112371        84.6919 
 212   0.0000       3.145049        85.5811 
 213   0.0000       3.184499        86.6546 
 214   0.0000       3.216389        87.5224 
 215   0.0000       3.258583        88.6706 
 216   0.0000       3.311465        90.1095 
 217   0.0000       3.332620        90.6852 
 218   0.0000       3.418734        93.0285 
 219   0.0000       3.583047        97.4997 
 220   0.0000       3.612622        98.3044 
 221   0.0000       3.617018        98.4241 
 222   0.0000       3.810330       103.6843 
 223   0.0000       3.846025       104.6557 
 224   0.0000       3.965149       107.8972 
 225   0.0000       4.225178       114.9729 
 226   0.0000       4.233534       115.2003 
 227   0.0000       4.470273       121.6423 
 228   0.0000       4.491018       122.2068 
 229   0.0000       4.889046       133.0377 
 230   0.0000       4.890322       133.0724 
 231   0.0000       5.002096       136.1140 
 232   0.0000       5.022434       136.6674 
 233   0.0000       5.133247       139.6827 
 234   0.0000       5.160227       140.4169 
 235   0.0000       5.184253       141.0707 
 236   0.0000       5.349320       145.5624 
 237   0.0000       5.550196       151.0285 
 238   0.0000       5.610014       152.6562 
 239   0.0000       5.890044       160.2763 
 240   0.0000      11.036225       300.3110 
 241   0.0000      11.054054       300.7961 
 242   0.0000      11.078096       301.4503 
 243   0.0000      11.110076       302.3205 
 244   0.0000      11.119256       302.5703 
 245   0.0000      11.130258       302.8697 
 246   0.0000      11.136347       303.0354 
 247   0.0000      11.153873       303.5123 
 248   0.0000      11.200289       304.7754 
 249   0.0000      22.684744       617.2833 
 250   0.0000      25.139153       684.0711 
 251   0.0000      25.244263       686.9313 
 252   0.0000      25.479345       693.3282 
 253   0.0000      32.468283       883.5069 
 254   0.0000      35.469175       965.1653 
 255   0.0000      35.714186       971.8324 
 256   0.0000      35.743701       972.6355 
 257   0.0000      35.842873       975.3342 
 258   0.0000     123.562699      3362.3120 

                    ********************************
                    * MULLIKEN POPULATION ANALYSIS *
                    ********************************

-----------------------
MULLIKEN ATOMIC CHARGES
-----------------------
   0 C :   -0.250468
   1 N :   -0.327969
   2 H :    0.152794
   3 H :    0.144721
   4 H :    0.148847
   5 H :    0.307733
   6 H :    0.283224
   7 H :    0.288835
   8 Pb:    0.897740
   9 Cl:   -0.574850
  10 Cl:   -0.532984
  11 Cl:   -0.537624
Sum of atomic charges:    0.0000000

--------------------------------
MULLIKEN REDUCED ORBITAL CHARGES
--------------------------------
  0 C s       :     3.269214  s :     3.269214
      pz      :     0.975671  p :     2.904691
      px      :     0.989252
      py      :     0.939767
      dz2     :     0.007716  d :     0.070514
      dxz     :     0.018791
      dyz     :     0.017807
      dx2y2   :     0.007737
      dxy     :     0.018462
      f0      :     0.000354  f :     0.006049
      f+1     :     0.000510
      f-1     :     0.000761
      f+2     :     0.000734
      f-2     :     0.002605
      f+3     :     0.000491
      f-3     :     0.000594
  1 N s       :     3.427432  s :     3.427432
      pz      :     1.287941  p :     3.849468
      px      :     1.290106
      py      :     1.271422
      dz2     :     0.005228  d :     0.048860
      dxz     :     0.012695
      dyz     :     0.011856
      dx2y2   :     0.006180
      dxy     :     0.012902
      f0      :     0.000141  f :     0.002209
      f+1     :     0.000162
      f-1     :     0.000199
      f+2     :     0.000211
      f-2     :     0.001152
      f+3     :     0.000164
      f-3     :     0.000181
  2 H s       :     0.825496  s :     0.825496
      pz      :     0.008189  p :     0.021710
      px      :     0.007719
      py      :     0.005802
  3 H s       :     0.833761  s :     0.833761
      pz      :     0.006880  p :     0.021518
      px      :     0.007263
      py      :     0.007376
  4 H s       :     0.829505  s :     0.829505
      pz      :     0.006840  p :     0.021648
      px      :     0.007365
      py      :     0.007442
  5 H s       :     0.637506  s :     0.637506
      pz      :     0.011684  p :     0.054761
      px      :     0.016356
      py      :     0.026721
  6 H s       :     0.677504  s :     0.677504
      pz      :     0.013493  p :     0.039271
      px      :     0.010505
      py      :     0.015273
  7 H s       :     0.664958  s :     0.664958
      pz      :     0.019920  p :     0.046207
      px      :     0.018178
      py      :     0.008108
  8 Pbs       :     3.936664  s :     3.936664
      pz      :     2.300210  p :     6.994586
      px      :     2.337948
      py      :     2.356428
      dz2     :     2.028780  d :    10.127083
      dxz     :     2.022194
      dyz     :     2.022922
      dx2y2   :     2.028879
      dxy     :     2.024308
      f0      :     0.009493  f :     0.043926
      f+1     :     0.007044
      f-1     :     0.006686
      f+2     :     0.004361
      f-2     :     0.000663
      f+3     :     0.007791
      f-3     :     0.007888
  9 Cls       :     5.963991  s :     5.963991
      pz      :     3.946262  p :    11.600537
      px      :     3.726622
      py      :     3.927654
      dz2     :     0.001742  d :     0.009974
      dxz     :     0.001343
      dyz     :     0.000927
      dx2y2   :     0.004505
      dxy     :     0.001457
      f0      :     0.000033  f :     0.000347
      f+1     :     0.000092
      f-1     :     0.000016
      f+2     :     0.000037
      f-2     :     0.000013
      f+3     :     0.000121
      f-3     :     0.000037
 10 Cls       :     5.957246  s :     5.957246
      pz      :     3.922555  p :    11.557197
      px      :     3.932949
      py      :     3.701693
      dz2     :     0.003083  d :     0.017755
      dxz     :     0.003061
      dyz     :     0.002539
      dx2y2   :     0.006848
      dxy     :     0.002224
      f0      :     0.000048  f :     0.000786
      f+1     :     0.000119
      f-1     :     0.000119
      f+2     :     0.000146
      f-2     :     0.000028
      f+3     :     0.000106
      f-3     :     0.000221
 11 Cls       :     5.956619  s :     5.956619
      pz      :     3.740878  p :    11.558990
      px      :     3.940571
      py      :     3.877541
      dz2     :     0.008909  d :     0.020915
      dxz     :     0.002876
      dyz     :     0.002536
      dx2y2   :     0.003737
      dxy     :     0.002857
      f0      :     0.000255  f :     0.001099
      f+1     :     0.000146
      f-1     :     0.000160
      f+2     :     0.000066
      f-2     :     0.000069
      f+3     :     0.000273
      f-3     :     0.000129


                     *******************************
                     * LOEWDIN POPULATION ANALYSIS *
                     *******************************

----------------------
LOEWDIN ATOMIC CHARGES
----------------------
   0 C :   -0.287617
   1 N :    0.052548
   2 H :    0.122975
   3 H :    0.120060
   4 H :    0.120928
   5 H :    0.100251
   6 H :    0.161964
   7 H :    0.136828
   8 Pb:    0.269172
   9 Cl:   -0.380474
  10 Cl:   -0.212540
  11 Cl:   -0.204094

-------------------------------
LOEWDIN REDUCED ORBITAL CHARGES
-------------------------------
  0 C s       :     2.853152  s :     2.853152
      pz      :     1.034008  p :     3.087905
      px      :     1.044488
      py      :     1.009409
      dz2     :     0.032150  d :     0.309359
      dxz     :     0.080372
      dyz     :     0.080716
      dx2y2   :     0.032202
      dxy     :     0.083919
      f0      :     0.005350  f :     0.037201
      f+1     :     0.004078
      f-1     :     0.005934
      f+2     :     0.004288
      f-2     :     0.006908
      f+3     :     0.004904
      f-3     :     0.005739
  1 N s       :     3.006437  s :     3.006437
      pz      :     1.257253  p :     3.771898
      px      :     1.255059
      py      :     1.259586
      dz2     :     0.016838  d :     0.159456
      dxz     :     0.041684
      dyz     :     0.040152
      dx2y2   :     0.019408
      dxy     :     0.041373
      f0      :     0.001471  f :     0.009661
      f+1     :     0.001105
      f-1     :     0.001414
      f+2     :     0.001018
      f-2     :     0.001901
      f+3     :     0.001224
      f-3     :     0.001528
  2 H s       :     0.815025  s :     0.815025
      pz      :     0.022629  p :     0.062000
      px      :     0.021469
      py      :     0.017902
  3 H s       :     0.818360  s :     0.818360
      pz      :     0.019263  p :     0.061580
      px      :     0.022086
      py      :     0.020231
  4 H s       :     0.817171  s :     0.817171
      pz      :     0.020804  p :     0.061901
      px      :     0.020603
      py      :     0.020494
  5 H s       :     0.716187  s :     0.716187
      pz      :     0.039753  p :     0.183562
      px      :     0.051671
      py      :     0.092138
  6 H s       :     0.719936  s :     0.719936
      pz      :     0.038904  p :     0.118100
      px      :     0.035366
      py      :     0.043830
  7 H s       :     0.721228  s :     0.721228
      pz      :     0.060413  p :     0.141944
      px      :     0.054087
      py      :     0.027444
  8 Pbs       :     3.817348  s :     3.817348
      pz      :     2.416153  p :     7.341102
      px      :     2.437665
      py      :     2.487284
      dz2     :     2.137723  d :    10.457086
      dxz     :     2.058005
      dyz     :     2.063479
      dx2y2   :     2.137518
      dxy     :     2.060360
      f0      :     0.026549  f :     0.115293
      f+1     :     0.018007
      f-1     :     0.017909
      f+2     :     0.010017
      f-2     :     0.001398
      f+3     :     0.019514
      f-3     :     0.021899
  9 Cls       :     5.842519  s :     5.842519
      pz      :     3.922509  p :    11.523525
      px      :     3.698173
      py      :     3.902844
      dz2     :     0.002495  d :     0.013875
      dxz     :     0.001250
      dyz     :     0.001645
      dx2y2   :     0.007092
      dxy     :     0.001394
      f0      :     0.000035  f :     0.000554
      f+1     :     0.000147
      f-1     :     0.000027
      f+2     :     0.000063
      f-2     :     0.000028
      f+3     :     0.000210
      f-3     :     0.000045
 10 Cls       :     5.764524  s :     5.764524
      pz      :     3.859905  p :    11.415129
      px      :     3.875596
      py      :     3.679627
      dz2     :     0.005820  d :     0.031202
      dxz     :     0.006071
      dyz     :     0.002818
      dx2y2   :     0.014170
      dxy     :     0.002325
      f0      :     0.000056  f :     0.001685
      f+1     :     0.000290
      f-1     :     0.000319
      f+2     :     0.000286
      f-2     :     0.000061
      f+3     :     0.000118
      f-3     :     0.000556
 11 Cls       :     5.760879  s :     5.760879
      pz      :     3.712485  p :    11.403178
      px      :     3.895143
      py      :     3.795550
      dz2     :     0.016471  d :     0.037534
      dxz     :     0.003959
      dyz     :     0.003477
      dx2y2   :     0.007562
      dxy     :     0.006065
      f0      :     0.000569  f :     0.002503
      f+1     :     0.000275
      f-1     :     0.000482
      f+2     :     0.000120
      f-2     :     0.000120
      f+3     :     0.000666
      f-3     :     0.000272


                      *****************************
                      * MAYER POPULATION ANALYSIS *
                      *****************************

  NA   - Mulliken gross atomic population
  ZA   - Total nuclear charge
  QA   - Mulliken gross atomic charge
  VA   - Mayer's total valence
  BVA  - Mayer's bonded valence
  FA   - Mayer's free valence

  ATOM       NA         ZA         QA         VA         BVA        FA
  0 C      6.2505     6.0000    -0.2505     3.8634     3.8634     0.0000
  1 N      7.3280     7.0000    -0.3280     3.2707     3.2707    -0.0000
  2 H      0.8472     1.0000     0.1528     0.9650     0.9650     0.0000
  3 H      0.8553     1.0000     0.1447     0.9631     0.9631    -0.0000
  4 H      0.8512     1.0000     0.1488     0.9634     0.9634     0.0000
  5 H      0.6923     1.0000     0.3077     0.9647     0.9647    -0.0000
  6 H      0.7168     1.0000     0.2832     0.9763     0.9763     0.0000
  7 H      0.7112     1.0000     0.2888     0.9591     0.9591    -0.0000
  8 Pb    21.1023    22.0000     0.8977     1.8516     1.8516    -0.0000
  9 Cl    17.5748    17.0000    -0.5748     0.7391     0.7391     0.0000
 10 Cl    17.5330    17.0000    -0.5330     0.8003     0.8003     0.0000
 11 Cl    17.5376    17.0000    -0.5376     0.7981     0.7981     0.0000

  Mayer bond orders larger than 0.1
B(  0-C ,  1-N ) :   0.9140 B(  0-C ,  2-H ) :   0.9724 B(  0-C ,  3-H ) :   0.9731 
B(  0-C ,  4-H ) :   0.9734 B(  1-N ,  5-H ) :   0.7598 B(  1-N ,  6-H ) :   0.8363 
B(  1-N ,  7-H ) :   0.8213 B(  5-H , 11-Cl) :   0.2111 B(  6-H ,  9-Cl) :   0.1537 
B(  7-H , 10-Cl) :   0.1341 B(  8-Pb,  9-Cl) :   0.6021 B(  8-Pb, 10-Cl) :   0.6562 
B(  8-Pb, 11-Cl) :   0.5887 

-------
TIMINGS
-------

Total SCF time: 0 days 0 hours 4 min 16 sec 

Total time                  ....     256.639 sec
Sum of individual times     ....     225.977 sec  ( 88.1%)

Fock matrix formation       ....     220.587 sec  ( 86.0%)
  Coulomb formation         ....     183.254 sec  ( 83.1% of F)
  Split-RI-J                ....      12.900 sec  (  5.8% of F)
  Chain of spheres X        ....     199.901 sec  ( 90.6% of F)
  COS-X 1 center corr.      ....       0.000 sec  (  0.0% of F)
  XC integration            ....      37.412 sec  ( 17.0% of F)
    Basis function eval.    ....      11.833 sec  ( 31.6% of XC)
    Density eval.           ....      10.495 sec  ( 28.1% of XC)
    XC-Functional eval.     ....       2.293 sec  (  6.1% of XC)
    XC-Potential eval.      ....      12.076 sec  ( 32.3% of XC)
Diagonalization             ....       0.313 sec  (  0.1%)
Density matrix formation    ....       0.042 sec  (  0.0%)
Population analysis         ....       0.082 sec  (  0.0%)
Initial guess               ....       0.168 sec  (  0.1%)
Orbital Transformation      ....       0.000 sec  (  0.0%)
Orbital Orthonormalization  ....       0.164 sec  (  0.1%)
DIIS solution               ....       0.084 sec  (  0.0%)
SOSCF solution              ....       0.129 sec  (  0.1%)
Grid generation             ....       4.572 sec  (  1.8%)

------------------------------------------------------------------------------
                              ORCA MP2 CALCULATION
------------------------------------------------------------------------------


----------------------
RI-MP2 ENERGY+GRADIENT
----------------------
Dimension of the basis                    ...  259
Memory devoted to MP2                     ... 1000 MB   
Data format for buffers                   ... DOUBLE
Compression type for matrix containers    ... UNCOMPRESSED
Overall scaling of the MP2 energy         ...   2.700e-01 Eh
Calculating two index integrals           ... done (    0.016 sec)
Cholesky decomposition of the V-matrix    ... done
Cholesky decomposition of V**-1           ... done (    0.033 sec)

-----------------
RI-TRANSFORMATION (AUX index driven)
-----------------

Dimension of the orbital-basis         ... 259
Dimension of the aux-basis             ... 493
Transformation of internal MOs         ...    0-  45
Transformation of internal/external MOs...    0-  45 to   46- 258
Number Format for Storage              ... Double (8 Byte)
Integral mode                          ... Direct

First Phase: integral generation and transformation of MO indices
  Aux angular momentum 0               ... done (    0.521 sec)
  Aux angular momentum 1               ... done (    0.428 sec)
  Aux angular momentum 2               ... done (    0.520 sec)
  Aux angular momentum 3               ... done (    0.313 sec)
  Aux angular momentum 4               ... done (    0.245 sec)
Closing buffer VIJ ( 0.00 GB; CompressionRatio= 1.95)
Closing buffer VIA ( 0.04 GB; CompressionRatio= 1.00)
  Phase 1 completed in     2.141 sec
Second Phase: sorting and transformation of aux index

IJ-Transformation
Memory available                       ... 990 MB 
Max. # MO pairs treated in a batch     ... 46    
# of internal orbitals                 ... 46
# batches for internal orbitals        ... 1
Closing buffer IJV ( 0.00 GB; CompressionRatio= 1.00)
(ij|v) transformation done in     0.135 sec

IA-Transformation
Memory available                       ... 990 MB 
Max. # MO pairs treated in a batch     ... 46    
# of internal orbitals                 ... 46
# batches for internal orbitals        ... 1
Closing buffer IAV ( 0.04 GB; CompressionRatio= 1.00)
(ia|v) transformation done in     0.590 sec

  Phase 2 completed in     0.758 sec
RI-Integral transformation completed in     2.900 sec
Opening buffers                              ... done

Starting loop over batches of integrals:

Operator 0  - window                       ... (  0- 45)x( 46-258)
Operator 0  - Memory available             ...  1000 MB
Operator 0  - Memory needed per MO         ...   1.6 MB
Operator 0  - Number of orbitals per batch ... 46
Operator 0  - Number of batches            ... 1

OPERATOR  0   PASS   0:  MOs     0 ...   45
  Reading integrals       ... ok
  Internal MO   2
  Internal MO   5
  Internal MO   8
  Internal MO  11
  Internal MO  14
  Internal MO  17
  Internal MO  20
  Internal MO  23
  Internal MO  26
  Internal MO  29
  Internal MO  32
  Internal MO  35
  Internal MO  38
  Internal MO  41
  Internal MO  44
Closing buffer GIPV ( 0.04 GB; CompressionRatio= 1.00)
Time spent in pair loops =    64.429 sec

-----------------------------------------------
 RI-MP2 CORRELATION ENERGY:     -0.578466936 Eh
-----------------------------------------------


---------------------
MP2 DENSITY FORMATION
---------------------

Completing the external part of the density      ... done
Storing the unrelaxed density                    ... done

Calculating the xc-kernel                        ... done
Calculating G(D)                                 ... done
Completing the Lagrangian                        ... done
Solving the Z-vector equations                   ... 

------------------------------------------------------------------------------
                           ORCA CP-SCF CALCULATION
------------------------------------------------------------------------------

Input orbitals are from        ... PbMACl3_mp2_10.orca.gbw
Input Perturbation             ... PbMACl3_mp2_10.orca.pin.tmp
Wavefunction output            ... PbMACl3_mp2_10.orca.pout.tmp
Perturbation mode              ... Real perturbation
Solver                         ... DIIS
   MaxDIIS                     ... 20
   Levelshift                  ...    3.000e-01 Eh
Max. number of iterations      ... 128
Convergence tolerance          ... 1.000e-08
Integral handling              ... Direct
COSX GridX                     ... 1
Number of perturbations        ... 1
Number of operators            ... 1
Orbital ranges used for CP-SCF:
 Operator 0:  Orbitals   0... 45  to  46...258
DFT calculation                         ... on
Exchange functional (SCF)               ... B88
Exchange functional (CP-SCF)            ... B88
   X-Alpha parameter    XAlpha (SCF)    ...  0.666667
   X-Alpha parameter    XAlpha (CP-SCF) ...  0.666667
   Becke's b parameter  XBeta (SCF)     ...  0.004200
   Becke's b parameter  XBeta (CP-SCF)  ...  0.004200
Correlation functional (SCF)            ... LYP
Correlation functional (CP-SCF)         ... LYP
 LDA part of GGA corr.  LDAOpt (SCF)    ... VWN-3
 LDA part of GGA corr.  LDAOpt (CP-SCF) ... VWN-3
Hybrid DFT                              ... on
   Exchange mixing (SCF)                ...  0.530
   Exchange mixing (CP-SCF)             ...  0.530
   GGA exch. scaling(SCF)               ...  0.470
   GGA exch. scaling (CP-SCF)           ...  0.470
   GGA corr. scaling (SCF)              ...  0.730
   GGA corr. scaling (CP-SCF)           ...  0.730
The RIJCOSX approximation is active
Variables per vector in CP-SCF ... 9798
Number of vectors sought       ... 1
Calculating the xc-kernel      ... done

Solving the CP-SCF equations by a DIIS algorithm

-----------------
CP-SCF ITERATIONS
-----------------
  Iteration   0: MaxR=  0.082750500
  Iteration   1: MaxR=  0.036413644
  Iteration   2: MaxR=  0.010584941
  Iteration   3: MaxR=  0.004179501
  Iteration   4: MaxR=  0.001795373
  Iteration   5: MaxR=  0.000626594
  Iteration   6: MaxR=  0.000248077
  Iteration   7: MaxR=  0.000078425
  Iteration   8: MaxR=  0.000031792
  Iteration   9: MaxR=  0.000011155
  Iteration  10: MaxR=  0.000004727
  Iteration  11: MaxR=  0.000001821
  Iteration  12: MaxR=  0.000000637
  Iteration  13: MaxR=  0.000000272
  Iteration  14: MaxR=  0.000000106
  Iteration  15: MaxR=  0.000000041
  Iteration  16: MaxR=  0.000000014
  Iteration  17: MaxR=  0.000000006
                              *** THE CP-SCF HAS CONVERGED *** 
done
Finalizing the relaxed density                   ... done
Transforming P to the AO basis                   ... done
Storing the relaxed density                      ... done

------------------------------------
ENERGY WEIGHTED DENSITY FINALIZATION
------------------------------------

Gathering the parts of the W-matrix              ... done
Forming the Z-density                            ... done
Transforming Z to the AO basis                   ... done
Calculating G(Z)                                 ... done
Finalizing the W-matrix                          ... done
Transforming W to the AO basis and storing       ... done
Entering the RIJONX and RIJCOSX sections
Starting the three-index derivative integrals:
Operator 0  - Memory available             ...  1000 MB
Operator 0  - Memory needed per MO         ...   1.0 MB
Operator 0  - Number of orbitals per batch ... 46
Operator 0  - Number of batches            ... 1

OPERATOR  0   PASS   0:  MOs     0 ...   45

----------------------------------
MP2 DERIVATIVE INTEGRAL GENERATION
----------------------------------


Input Correlated Electron Density   ... PbMACl3_mp2_10.orca.pmp2re
Input Energy Weighted Density       ... PbMACl3_mp2_10.orca.wmp2.tmp
Input SCF Electron Density          ... PbMACl3_mp2_10.orca.scfp.tmp

One-Electron Terms    ...
  ECP gradient                                           ... One-Electron Terms done

-----------------------------------------------------------
MP2 COSX Grid Generation
-----------------------------------------------------------

General Integration Accuracy     IntAcc      ...  4.340
Radial Grid Type                 RadialGrid  ... Gauss-Chebyshev
Angular Grid (max. acc.)         AngularGrid ... Lebedev-302
Angular grid pruning method      GridPruning ... 3 (G Style)
Weight generation scheme         WeightScheme... Becke
Basis function cutoff            BFCut       ...    1.0000e-11
Integration weight cutoff        WCut        ...    1.0000e-14
Grids for H and He will be reduced by one unit

# of grid points (after initial pruning)     ...  57718 (   0.0 sec)
# of grid points (after weights+screening)   ...  54293 (   0.2 sec)
nearest neighbour list constructed           ...    0.0 sec
Grid point re-assignment to atoms done       ...    0.0 sec
Grid point division into batches done        ...    0.3 sec
Reduced shell lists constructed in    1.2 sec

Total number of grid points                  ...    54293
Total number of batches                      ...      854
Average number of points per batch           ...       63
Average number of grid points per atom       ...     4524
Average number of shells per batch           ...    57.16 (56.60%)
Average number of basis functions per batch  ...   152.09 (58.72%)
Average number of large shells per batch     ...    43.32 (75.79%)
Average number of large basis fcns per batch ...   111.69 (73.44%)
Maximum spatial batch extension              ...  32.63, 35.78, 31.70 au
Average spatial batch extension              ...   3.08,  3.03,  3.14 au

Overlap Fitting                  UseSFitting ... on
Two electron COSX terms .... 
Integration Timings:
Total Time                  =   121.8 sec
Basis fcn evaluation        =     0.4 sec
Density evaluation          =     1.4 sec
Integral evaluation         =   117.3 sec
K(P) evaluation             =     1.2 sec
                          .... COSX two electron terms done
COSX two-electron contribution to the gradient
     0:    -0.021116    -0.019224    -0.016673
     1:     0.043666     0.045344     0.063814
     2:     0.099791    -0.082532     0.106428
     3:    -0.102746     0.096390     0.087895
     4:     0.094001     0.097265    -0.097802
     5:    -0.100337    -0.090936     0.084009
     6:     0.098484    -0.113340    -0.104634
     7:    -0.115062     0.075381    -0.117888
     8:    -0.068373    -0.070256    -0.046533
     9:     0.061816    -0.004182    -0.005185
    10:    -0.006560     0.068052    -0.010989
    11:     0.016545    -0.002293     0.057505
Exchange-correlation gradient    ... done
Dispersion correction            ... 
Entering the calculation of the dispersion correction...

Checking the input atom types...

Done
done

                *********************************************
                * UNRELAXED MP2 DENSITY POPULATION ANALYSIS *
                *********************************************

------------------------------------------------------------------------------
                           ORCA POPULATION ANALYSIS
------------------------------------------------------------------------------
Input electron density              ... PbMACl3_mp2_10.orca.pmp2ur
BaseName (.gbw .S,...)              ... PbMACl3_mp2_10.orca

                    ********************************
                    * MULLIKEN POPULATION ANALYSIS *
                    ********************************

-----------------------
MULLIKEN ATOMIC CHARGES
-----------------------
   0 C :   -0.255062
   1 N :   -0.327014
   2 H :    0.153812
   3 H :    0.145793
   4 H :    0.149885
   5 H :    0.306341
   6 H :    0.281995
   7 H :    0.287832
   8 Pb:    0.881233
   9 Cl:   -0.567452
  10 Cl:   -0.526288
  11 Cl:   -0.531074
Sum of atomic charges:    0.0000000

--------------------------------
MULLIKEN REDUCED ORBITAL CHARGES
--------------------------------
  0 C s       :     3.268030  s :     3.268030
      pz      :     0.974301  p :     2.900716
      px      :     0.987765
      py      :     0.938651
      dz2     :     0.009751  d :     0.079125
      dxz     :     0.020361
      dyz     :     0.019288
      dx2y2   :     0.009749
      dxy     :     0.019975
      f0      :     0.000512  f :     0.007190
      f+1     :     0.000684
      f-1     :     0.000932
      f+2     :     0.000916
      f-2     :     0.002730
      f+3     :     0.000658
      f-3     :     0.000760
  1 N s       :     3.425266  s :     3.425266
      pz      :     1.284279  p :     3.838442
      px      :     1.286409
      py      :     1.267755
      dz2     :     0.007578  d :     0.060045
      dxz     :     0.014858
      dyz     :     0.014029
      dx2y2   :     0.008531
      dxy     :     0.015050
      f0      :     0.000287  f :     0.003261
      f+1     :     0.000314
      f-1     :     0.000352
      f+2     :     0.000367
      f-2     :     0.001294
      f+3     :     0.000314
      f-3     :     0.000332
  2 H s       :     0.823458  s :     0.823458
      pz      :     0.008520  p :     0.022730
      px      :     0.008052
      py      :     0.006159
  3 H s       :     0.831658  s :     0.831658
      pz      :     0.007222  p :     0.022549
      px      :     0.007610
      py      :     0.007716
  4 H s       :     0.827440  s :     0.827440
      pz      :     0.007189  p :     0.022675
      px      :     0.007703
      py      :     0.007783
  5 H s       :     0.638224  s :     0.638224
      pz      :     0.011925  p :     0.055434
      px      :     0.016576
      py      :     0.026934
  6 H s       :     0.678134  s :     0.678134
      pz      :     0.013700  p :     0.039871
      px      :     0.010708
      py      :     0.015464
  7 H s       :     0.665321  s :     0.665321
      pz      :     0.020111  p :     0.046847
      px      :     0.018375
      py      :     0.008361
  8 Pbs       :     3.917957  s :     3.917957
      pz      :     2.309872  p :     7.022871
      px      :     2.348212
      py      :     2.364788
      dz2     :     2.022811  d :    10.098492
      dxz     :     2.016568
      dyz     :     2.017279
      dx2y2   :     2.023050
      dxy     :     2.018783
      f0      :     0.014546  f :     0.079447
      f+1     :     0.012115
      f-1     :     0.011778
      f+2     :     0.009491
      f-2     :     0.005694
      f+3     :     0.012886
      f-3     :     0.012937
  9 Cls       :     5.959358  s :     5.959358
      pz      :     3.931960  p :    11.556439
      px      :     3.711185
      py      :     3.913294
      dz2     :     0.009457  d :     0.048670
      dxz     :     0.009111
      dyz     :     0.008656
      dx2y2   :     0.012211
      dxy     :     0.009235
      f0      :     0.000407  f :     0.002986
      f+1     :     0.000468
      f-1     :     0.000388
      f+2     :     0.000416
      f-2     :     0.000387
      f+3     :     0.000500
      f-3     :     0.000418
 10 Cls       :     5.952654  s :     5.952654
      pz      :     3.907783  p :    11.513179
      px      :     3.918253
      py      :     3.687144
      dz2     :     0.010898  d :     0.056937
      dxz     :     0.010894
      dyz     :     0.010425
      dx2y2   :     0.014612
      dxy     :     0.010108
      f0      :     0.000435  f :     0.003518
      f+1     :     0.000505
      f-1     :     0.000509
      f+2     :     0.000541
      f-2     :     0.000415
      f+3     :     0.000501
      f-3     :     0.000610
 11 Cls       :     5.952068  s :     5.952068
      pz      :     3.726045  p :    11.514726
      px      :     3.925939
      py      :     3.862743
      dz2     :     0.016730  d :     0.060415
      dxz     :     0.010748
      dyz     :     0.010508
      dx2y2   :     0.011670
      dxy     :     0.010759
      f0      :     0.000657  f :     0.003865
      f+1     :     0.000540
      f-1     :     0.000568
      f+2     :     0.000457
      f-2     :     0.000457
      f+3     :     0.000665
      f-3     :     0.000521


                     *******************************
                     * LOEWDIN POPULATION ANALYSIS *
                     *******************************

----------------------
LOEWDIN ATOMIC CHARGES
----------------------
   0 C :   -0.290683
   1 N :    0.051777
   2 H :    0.123695
   3 H :    0.120791
   4 H :    0.121651
   5 H :    0.099950
   6 H :    0.161370
   7 H :    0.136404
   8 Pb:    0.255612
   9 Cl:   -0.373851
  10 Cl:   -0.207408
  11 Cl:   -0.199308

-------------------------------
LOEWDIN REDUCED ORBITAL CHARGES
-------------------------------
  0 C s       :     2.852564  s :     2.852564
      pz      :     1.031618  p :     3.080824
      px      :     1.042035
      py      :     1.007171
      dz2     :     0.033935  d :     0.318324
      dxz     :     0.082186
      dyz     :     0.082518
      dx2y2   :     0.033982
      dxy     :     0.085703
      f0      :     0.005579  f :     0.038971
      f+1     :     0.004292
      f-1     :     0.006141
      f+2     :     0.004502
      f-2     :     0.007373
      f+3     :     0.005134
      f-3     :     0.005951
  1 N s       :     3.005908  s :     3.005908
      pz      :     1.253326  p :     3.760005
      px      :     1.251187
      py      :     1.255492
      dz2     :     0.018919  d :     0.171280
      dxz     :     0.044233
      dyz     :     0.042728
      dx2y2   :     0.021488
      dxy     :     0.043911
      f0      :     0.001654  f :     0.011029
      f+1     :     0.001283
      f-1     :     0.001589
      f+2     :     0.001198
      f-2     :     0.002192
      f+3     :     0.001410
      f-3     :     0.001704
  2 H s       :     0.812445  s :     0.812445
      pz      :     0.023289  p :     0.063861
      px      :     0.022097
      py      :     0.018475
  3 H s       :     0.815749  s :     0.815749
      pz      :     0.019854  p :     0.063460
      px      :     0.022744
      py      :     0.020863
  4 H s       :     0.814573  s :     0.814573
      pz      :     0.021430  p :     0.063776
      px      :     0.021216
      py      :     0.021131
  5 H s       :     0.715552  s :     0.715552
      pz      :     0.040186  p :     0.184499
      px      :     0.052058
      py      :     0.092254
  6 H s       :     0.719088  s :     0.719088
      pz      :     0.039379  p :     0.119543
      px      :     0.035824
      py      :     0.044340
  7 H s       :     0.720337  s :     0.720337
      pz      :     0.060845  p :     0.143259
      px      :     0.054507
      py      :     0.027907
  8 Pbs       :     3.799688  s :     3.799688
      pz      :     2.424948  p :     7.366665
      px      :     2.447266
      py      :     2.494451
      dz2     :     2.131282  d :    10.427234
      dxz     :     2.052272
      dyz     :     2.057716
      dx2y2   :     2.131223
      dxy     :     2.054740
      f0      :     0.031580  f :     0.150801
      f+1     :     0.023069
      f-1     :     0.023001
      f+2     :     0.015159
      f-2     :     0.006453
      f+3     :     0.024593
      f-3     :     0.026946
  9 Cls       :     5.837845  s :     5.837845
      pz      :     3.908224  p :    11.480034
      px      :     3.683300
      py      :     3.888509
      dz2     :     0.010253  d :     0.052757
      dxz     :     0.009005
      dyz     :     0.009415
      dx2y2   :     0.014934
      dxy     :     0.009150
      f0      :     0.000411  f :     0.003215
      f+1     :     0.000527
      f-1     :     0.000401
      f+2     :     0.000446
      f-2     :     0.000404
      f+3     :     0.000596
      f-3     :     0.000429
 10 Cls       :     5.760059  s :     5.760059
      pz      :     3.845527  p :    11.372431
      px      :     3.861240
      py      :     3.665664
      dz2     :     0.013678  d :     0.070451
      dxz     :     0.013892
      dyz     :     0.010678
      dx2y2   :     0.022030
      dxy     :     0.010173
      f0      :     0.000447  f :     0.004466
      f+1     :     0.000681
      f-1     :     0.000718
      f+2     :     0.000687
      f-2     :     0.000453
      f+3     :     0.000519
      f-3     :     0.000961
 11 Cls       :     5.756443  s :     5.756443
      pz      :     3.698304  p :    11.360494
      px      :     3.880715
      py      :     3.781475
      dz2     :     0.024408  d :     0.077056
      dxz     :     0.011812
      dyz     :     0.011399
      dx2y2   :     0.015487
      dxy     :     0.013949
      f0      :     0.000987  f :     0.005315
      f+1     :     0.000677
      f-1     :     0.000894
      f+2     :     0.000513
      f-2     :     0.000512
      f+3     :     0.001064
      f-3     :     0.000668


                      *****************************
                      * MAYER POPULATION ANALYSIS *
                      *****************************

  NA   - Mulliken gross atomic population
  ZA   - Total nuclear charge
  QA   - Mulliken gross atomic charge
  VA   - Mayer's total valence
  BVA  - Mayer's bonded valence
  FA   - Mayer's free valence

  ATOM       NA         ZA         QA         VA         BVA        FA
  0 C      6.2551     6.0000    -0.2551     3.9088     3.7930     0.1158
  1 N      7.3270     7.0000    -0.3270     3.3471     3.1999     0.1472
  2 H      0.8462     1.0000     0.1538     0.9678     0.9491     0.0187
  3 H      0.8542     1.0000     0.1458     0.9659     0.9472     0.0188
  4 H      0.8501     1.0000     0.1499     0.9661     0.9474     0.0187
  5 H      0.6937     1.0000     0.3063     0.9672     0.9470     0.0202
  6 H      0.7180     1.0000     0.2820     0.9790     0.9580     0.0210
  7 H      0.7122     1.0000     0.2878     0.9615     0.9412     0.0203
  8 Pb    21.1188    22.0000     0.8812     2.1541     1.7922     0.3619
  9 Cl    17.5675    17.0000    -0.5675     0.9803     0.7149     0.2654
 10 Cl    17.5263    17.0000    -0.5263     1.0374     0.7753     0.2621
 11 Cl    17.5311    17.0000    -0.5311     1.0355     0.7734     0.2621

  Mayer bond orders larger than 0.1
B(  0-C ,  1-N ) :   0.8909 B(  0-C ,  2-H ) :   0.9571 B(  0-C ,  3-H ) :   0.9578 
B(  0-C ,  4-H ) :   0.9580 B(  1-N ,  5-H ) :   0.7460 B(  1-N ,  6-H ) :   0.8208 
B(  1-N ,  7-H ) :   0.8060 B(  5-H , 11-Cl) :   0.2076 B(  6-H ,  9-Cl) :   0.1511 
B(  7-H , 10-Cl) :   0.1320 B(  8-Pb,  9-Cl) :   0.5819 B(  8-Pb, 10-Cl) :   0.6355 
B(  8-Pb, 11-Cl) :   0.5702 


                *******************************************
                * RELAXED MP2 DENSITY POPULATION ANALYSIS *
                *******************************************

------------------------------------------------------------------------------
                           ORCA POPULATION ANALYSIS
------------------------------------------------------------------------------
Input electron density              ... PbMACl3_mp2_10.orca.pmp2re
BaseName (.gbw .S,...)              ... PbMACl3_mp2_10.orca

                    ********************************
                    * MULLIKEN POPULATION ANALYSIS *
                    ********************************

-----------------------
MULLIKEN ATOMIC CHARGES
-----------------------
   0 C :   -0.273999
   1 N :   -0.323402
   2 H :    0.157603
   3 H :    0.150320
   4 H :    0.154055
   5 H :    0.298931
   6 H :    0.276483
   7 H :    0.281442
   8 Pb:    0.825766
   9 Cl:   -0.539942
  10 Cl:   -0.501189
  11 Cl:   -0.506068
Sum of atomic charges:    0.0000000

--------------------------------
MULLIKEN REDUCED ORBITAL CHARGES
--------------------------------
  0 C s       :     3.271599  s :     3.271599
      pz      :     0.980740  p :     2.920435
      px      :     0.994367
      py      :     0.945328
      dz2     :     0.009975  d :     0.074932
      dxz     :     0.018816
      dyz     :     0.017753
      dx2y2   :     0.009942
      dxy     :     0.018446
      f0      :     0.000495  f :     0.007032
      f+1     :     0.000675
      f-1     :     0.000916
      f+2     :     0.000908
      f-2     :     0.002650
      f+3     :     0.000644
      f-3     :     0.000745
  1 N s       :     3.426784  s :     3.426784
      pz      :     1.283162  p :     3.834520
      px      :     1.284583
      py      :     1.266774
      dz2     :     0.007763  d :     0.058889
      dxz     :     0.014379
      dyz     :     0.013449
      dx2y2   :     0.008727
      dxy     :     0.014570
      f0      :     0.000284  f :     0.003209
      f+1     :     0.000313
      f-1     :     0.000353
      f+2     :     0.000367
      f-2     :     0.001249
      f+3     :     0.000310
      f-3     :     0.000333
  2 H s       :     0.820033  s :     0.820033
      pz      :     0.008352  p :     0.022365
      px      :     0.007910
      py      :     0.006103
  3 H s       :     0.827485  s :     0.827485
      pz      :     0.007130  p :     0.022195
      px      :     0.007474
      py      :     0.007591
  4 H s       :     0.823625  s :     0.823625
      pz      :     0.007075  p :     0.022320
      px      :     0.007585
      py      :     0.007660
  5 H s       :     0.646190  s :     0.646190
      pz      :     0.011847  p :     0.054879
      px      :     0.016411
      py      :     0.026621
  6 H s       :     0.684105  s :     0.684105
      pz      :     0.013550  p :     0.039412
      px      :     0.010585
      py      :     0.015276
  7 H s       :     0.672148  s :     0.672148
      pz      :     0.019879  p :     0.046410
      px      :     0.018159
      py      :     0.008372
  8 Pbs       :     3.929009  s :     3.929009
      pz      :     2.327862  p :     7.072146
      px      :     2.368556
      py      :     2.375728
      dz2     :     2.020085  d :    10.095057
      dxz     :     2.017373
      dyz     :     2.018066
      dx2y2   :     2.019906
      dxy     :     2.019627
      f0      :     0.014167  f :     0.078022
      f+1     :     0.011873
      f-1     :     0.011576
      f+2     :     0.009453
      f-2     :     0.005690
      f+3     :     0.012612
      f-3     :     0.012651
  9 Cls       :     5.960515  s :     5.960515
      pz      :     3.926132  p :    11.527909
      px      :     3.695827
      py      :     3.905949
      dz2     :     0.009382  d :     0.048517
      dxz     :     0.009166
      dyz     :     0.008724
      dx2y2   :     0.011980
      dxy     :     0.009265
      f0      :     0.000410  f :     0.003001
      f+1     :     0.000470
      f-1     :     0.000390
      f+2     :     0.000420
      f-2     :     0.000389
      f+3     :     0.000502
      f-3     :     0.000421
 10 Cls       :     5.953439  s :     5.953439
      pz      :     3.899462  p :    11.487173
      px      :     3.910939
      py      :     3.676772
      dz2     :     0.010890  d :     0.057038
      dxz     :     0.011112
      dyz     :     0.010437
      dx2y2   :     0.014428
      dxy     :     0.010171
      f0      :     0.000437  f :     0.003539
      f+1     :     0.000511
      f-1     :     0.000510
      f+2     :     0.000547
      f-2     :     0.000417
      f+3     :     0.000506
      f-3     :     0.000610
 11 Cls       :     5.952732  s :     5.952732
      pz      :     3.716279  p :    11.488612
      px      :     3.920467
      py      :     3.851867
      dz2     :     0.016511  d :     0.060831
      dxz     :     0.010838
      dyz     :     0.010634
      dx2y2   :     0.011889
      dxy     :     0.010960
      f0      :     0.000659  f :     0.003893
      f+1     :     0.000544
      f-1     :     0.000575
      f+2     :     0.000459
      f-2     :     0.000459
      f+3     :     0.000671
      f-3     :     0.000526


                     *******************************
                     * LOEWDIN POPULATION ANALYSIS *
                     *******************************

----------------------
LOEWDIN ATOMIC CHARGES
----------------------
   0 C :   -0.300391
   1 N :    0.047902
   2 H :    0.125726
   3 H :    0.123077
   4 H :    0.123790
   5 H :    0.098329
   6 H :    0.160090
   7 H :    0.135029
   8 Pb:    0.220205
   9 Cl:   -0.354917
  10 Cl:   -0.193289
  11 Cl:   -0.185552

-------------------------------
LOEWDIN REDUCED ORBITAL CHARGES
-------------------------------
  0 C s       :     2.853896  s :     2.853896
      pz      :     1.035920  p :     3.093857
      px      :     1.046364
      py      :     1.011573
      dz2     :     0.034179  d :     0.313894
      dxz     :     0.080579
      dyz     :     0.080802
      dx2y2   :     0.034171
      dxy     :     0.084164
      f0      :     0.005572  f :     0.038743
      f+1     :     0.004263
      f-1     :     0.006113
      f+2     :     0.004469
      f-2     :     0.007283
      f+3     :     0.005105
      f-3     :     0.005939
  1 N s       :     3.008031  s :     3.008031
      pz      :     1.253923  p :     3.761322
      px      :     1.251950
      py      :     1.255449
      dz2     :     0.019205  d :     0.171629
      dxz     :     0.044175
      dyz     :     0.042604
      dx2y2   :     0.021789
      dxy     :     0.043856
      f0      :     0.001673  f :     0.011116
      f+1     :     0.001291
      f-1     :     0.001599
      f+2     :     0.001200
      f-2     :     0.002214
      f+3     :     0.001422
      f-3     :     0.001718
  2 H s       :     0.810307  s :     0.810307
      pz      :     0.023296  p :     0.063967
      px      :     0.022116
      py      :     0.018555
  3 H s       :     0.813336  s :     0.813336
      pz      :     0.019913  p :     0.063587
      px      :     0.022769
      py      :     0.020906
  4 H s       :     0.812301  s :     0.812301
      pz      :     0.021465  p :     0.063908
      px      :     0.021259
      py      :     0.021184
  5 H s       :     0.717756  s :     0.717756
      pz      :     0.040157  p :     0.183915
      px      :     0.051941
      py      :     0.091818
  6 H s       :     0.720414  s :     0.720414
      pz      :     0.039368  p :     0.119496
      px      :     0.035805
      py      :     0.044322
  7 H s       :     0.721872  s :     0.721872
      pz      :     0.060748  p :     0.143099
      px      :     0.054390
      py      :     0.027960
  8 Pbs       :     3.810357  s :     3.810357
      pz      :     2.438478  p :     7.401855
      px      :     2.462823
      py      :     2.500555
      dz2     :     2.127017  d :    10.418917
      dxz     :     2.052570
      dyz     :     2.057817
      dx2y2   :     2.126498
      dxy     :     2.055015
      f0      :     0.031045  f :     0.148666
      f+1     :     0.022681
      f-1     :     0.022702
      f+2     :     0.015063
      f-2     :     0.006441
      f+3     :     0.024172
      f-3     :     0.026561
  9 Cls       :     5.840709  s :     5.840709
      pz      :     3.903764  p :    11.458011
      px      :     3.671173
      py      :     3.883074
      dz2     :     0.010248  d :     0.052955
      dxz     :     0.009068
      dyz     :     0.009504
      dx2y2   :     0.014940
      dxy     :     0.009196
      f0      :     0.000414  f :     0.003242
      f+1     :     0.000533
      f-1     :     0.000402
      f+2     :     0.000450
      f-2     :     0.000406
      f+3     :     0.000605
      f-3     :     0.000432
 10 Cls       :     5.763282  s :     5.763282
      pz      :     3.839410  p :    11.354202
      px      :     3.855802
      py      :     3.658990
      dz2     :     0.013803  d :     0.071274
      dxz     :     0.014116
      dyz     :     0.010791
      dx2y2   :     0.022242
      dxy     :     0.010323
      f0      :     0.000451  f :     0.004531
      f+1     :     0.000687
      f-1     :     0.000731
      f+2     :     0.000697
      f-2     :     0.000456
      f+3     :     0.000528
      f-3     :     0.000982
 11 Cls       :     5.759759  s :     5.759759
      pz      :     3.691727  p :    11.342387
      px      :     3.876410
      py      :     3.774250
      dz2     :     0.024647  d :     0.078036
      dxz     :     0.011953
      dyz     :     0.011540
      dx2y2   :     0.015765
      dxy     :     0.014131
      f0      :     0.001009  f :     0.005370
      f+1     :     0.000687
      f-1     :     0.000905
      f+2     :     0.000515
      f-2     :     0.000513
      f+3     :     0.001067
      f-3     :     0.000674


                      *****************************
                      * MAYER POPULATION ANALYSIS *
                      *****************************

  NA   - Mulliken gross atomic population
  ZA   - Total nuclear charge
  QA   - Mulliken gross atomic charge
  VA   - Mayer's total valence
  BVA  - Mayer's bonded valence
  FA   - Mayer's free valence

  ATOM       NA         ZA         QA         VA         BVA        FA
  0 C      6.2740     6.0000    -0.2740     3.9096     3.7942     0.1155
  1 N      7.3234     7.0000    -0.3234     3.3567     3.2099     0.1468
  2 H      0.8424     1.0000     0.1576     0.9668     0.9481     0.0186
  3 H      0.8497     1.0000     0.1503     0.9648     0.9461     0.0187
  4 H      0.8459     1.0000     0.1541     0.9650     0.9463     0.0187
  5 H      0.7011     1.0000     0.2989     0.9731     0.9530     0.0201
  6 H      0.7235     1.0000     0.2765     0.9845     0.9636     0.0209
  7 H      0.7186     1.0000     0.2814     0.9674     0.9472     0.0202
  8 Pb    21.1742    22.0000     0.8258     2.2349     1.8780     0.3569
  9 Cl    17.5399    17.0000    -0.5399     1.0265     0.7630     0.2635
 10 Cl    17.5012    17.0000    -0.5012     1.0820     0.8214     0.2606
 11 Cl    17.5061    17.0000    -0.5061     1.0805     0.8198     0.2607

  Mayer bond orders larger than 0.1
B(  0-C ,  1-N ) :   0.8980 B(  0-C ,  2-H ) :   0.9542 B(  0-C ,  3-H ) :   0.9551 
B(  0-C ,  4-H ) :   0.9551 B(  1-N ,  5-H ) :   0.7422 B(  1-N ,  6-H ) :   0.8170 
B(  1-N ,  7-H ) :   0.8019 B(  5-H , 11-Cl) :   0.2175 B(  6-H ,  9-Cl) :   0.1607 
B(  7-H , 10-Cl) :   0.1416 B(  8-Pb,  9-Cl) :   0.6135 B(  8-Pb, 10-Cl) :   0.6627 
B(  8-Pb, 11-Cl) :   0.5943 


-------
TIMINGS
-------

Total time                :  618.756 sec
Integral trafo            :    2.914 sec (  0.5%)
I/O of integrals          :    0.159 sec (  0.0%)
K(i,j) Operators          :   10.153 sec (  1.6%)
T(i,j) pair energies      :    1.420 sec (  0.2%)
V-calculation             :    0.016 sec (  0.0%)
V**(-1/2)                 :    0.033 sec (  0.0%)
Gamma(ia|P)               :    9.872 sec (  1.6%)
Gamma-Trafo               :    1.337 sec (  0.2%)
D(virtual)                :    4.424 sec (  0.7%)
D(internal)               :    4.395 sec (  0.7%)
W(virtual)                :    8.839 sec (  1.4%)
W(internal)               :   16.686 sec (  2.7%)
L(virtual)                :    6.654 sec (  1.1%)
L(internal)               :    0.238 sec (  0.0%)
G(D)                      :   17.630 sec (  2.8%)
G(Z)                      :   17.855 sec (  2.9%)
Z-Vector Solution         :  369.905 sec ( 59.8%)
Z-Vector Solution         :  369.905 sec ( 59.8%)
3-Index Derivative 
+ Separable RIJ part      :    5.674 sec (  0.9%)
2-Index Derivative 
+ Separable RIJ part      :    0.042 sec (  0.0%)
Separable Gradient (COSX) :  137.764 sec ( 22.3%)


---------------------------------------
MP2 TOTAL ENERGY:    -1669.605231780 Eh
---------------------------------------

The final MP2 gradient
  0:  -0.00064193   0.00284687   0.00372950
  1:  -0.01113450  -0.02462086   0.00557450
  2:   0.00241311  -0.00228781   0.00262893
  3:  -0.00263517   0.00249182   0.00235009
  4:   0.00175100   0.00200183  -0.00339053
  5:  -0.01018360  -0.00661526   0.00034802
  6:  -0.00109957  -0.00397383  -0.00619823
  7:  -0.00900883  -0.00073109  -0.00639881
  8:  -0.02975934  -0.00738731  -0.00884073
  9:   0.02601032  -0.00125069   0.00042460
 10:   0.01081130   0.00823475   0.00922601
 11:   0.02362296   0.03096993   0.00047198

-----------------------------------
NORM OF THE MP2 GRADIENT:  0.068179
-----------------------------------

Entering the calculation of the dispersion correction...

Checking the input atom types...

Done


-------------------------------------------------------------------------------
                          DFT DISPERSION CORRECTION                            
                                                                               
                                DFTD3 V2.1  Rev 6                               
                          USING Becke-Johnson damping                          
-------------------------------------------------------------------------------
The B2PLYP functional is recognized
Active option DFTDOPT                   ...         4   

molecular C6(AA) [au] = 4883.405442 


            DFT-D V3
 parameters
 s6 scaling factor         :     0.6400 
 a1 scaling factor         :     0.3065 
 s8 scaling factor         :     0.9147 
 a2 scaling factor         :     5.0570 
 ad hoc parameters k1-k3   :    16.0000     1.3333    -4.0000 

 Edisp/kcal,au: -8.845428099710  -0.014096085433 
 E6   /kcal   :  -4.063624869 
 E8   /kcal   :  -4.781803231 
 % E8         :  54.059602060 

-------------------------   ----------------
Dispersion correction           -0.014096085
-------------------------   ----------------


-------------------------   --------------------
FINAL SINGLE POINT ENERGY     -1669.619327865857
-------------------------   --------------------


                            ***************************************
                            *     ORCA property calculations      *
                            ***************************************


  WARNING: The energy has been calculated at the MP2 level but the densities
           used in the property calculations are still SCF densities
           MP2 response densities have not been calculated 
           use %mp2 Density relaxed end
           or  %mp2 Density unrelaxed end

                                    ---------------------
                                    Active property flags
                                    ---------------------
   (+) Dipole Moment


------------------------------------------------------------------------------
                       ORCA ELECTRIC PROPERTIES CALCULATION
------------------------------------------------------------------------------

Dipole Moment Calculation                       ... on
Quadrupole Moment Calculation                   ... off
Polarizability Calculation                      ... off
GBWName                                         ... PbMACl3_mp2_10.orca.gbw
Electron density file                           ... PbMACl3_mp2_10.orca.scfp.tmp

-------------
DIPOLE MOMENT
-------------
                                X             Y             Z
Electronic contribution:    -87.80302     -99.13635     -74.96327
Nuclear contribution   :     87.01375      99.85676      75.48845
                        -----------------------------------------
Total Dipole Moment    :     -0.78926       0.72041       0.52518
                        -----------------------------------------
Magnitude (a.u.)       :      1.19069
Magnitude (Debye)      :      3.02650


                         *** MP2 UNRELAXED DENSITY ***

------------------------------------------------------------------------------
                       ORCA ELECTRIC PROPERTIES CALCULATION
------------------------------------------------------------------------------

Dipole Moment Calculation                       ... on
Quadrupole Moment Calculation                   ... off
Polarizability Calculation                      ... off
GBWName                                         ... PbMACl3_mp2_10.orca.gbw
Electron density file                           ... PbMACl3_mp2_10.orca.pmp2ur

-------------
DIPOLE MOMENT
-------------
                                X             Y             Z
Electronic contribution:    -87.77714     -99.12361     -74.95424
Nuclear contribution   :     87.01375      99.85676      75.48845
                        -----------------------------------------
Total Dipole Moment    :     -0.76339       0.73315       0.53421
                        -----------------------------------------
Magnitude (a.u.)       :      1.18560
Magnitude (Debye)      :      3.01357


                           *** MP2 RELAXED DENSITY ***

------------------------------------------------------------------------------
                       ORCA ELECTRIC PROPERTIES CALCULATION
------------------------------------------------------------------------------

Dipole Moment Calculation                       ... on
Quadrupole Moment Calculation                   ... off
Polarizability Calculation                      ... off
GBWName                                         ... PbMACl3_mp2_10.orca.gbw
Electron density file                           ... PbMACl3_mp2_10.orca.pmp2re

-------------
DIPOLE MOMENT
-------------
                                X             Y             Z
Electronic contribution:    -87.73237     -99.13379     -74.96101
Nuclear contribution   :     87.01375      99.85676      75.48845
                        -----------------------------------------
Total Dipole Moment    :     -0.71862       0.72297       0.52743
                        -----------------------------------------
Magnitude (a.u.)       :      1.14773
Magnitude (Debye)      :      2.91730


Timings for individual modules:

Sum of individual times         ...      877.496 sec (=  14.625 min)
GTO integral calculation        ...        0.721 sec (=   0.012 min)   0.1 %
SCF iterations                  ...      256.870 sec (=   4.281 min)  29.3 %
MP2 module                      ...      619.905 sec (=  10.332 min)  70.6 %
                             ****ORCA TERMINATED NORMALLY****
TOTAL RUN TIME: 0 days 0 hours 14 minutes 38 seconds 85 msec
