
                                 *****************
                                 * O   R   C   A *
                                 *****************

           --- An Ab Initio, DFT and Semiempirical electronic structure package ---

                  #######################################################
                  #                        -***-                        #
                  #  Department of molecular theory and spectroscopy    #
                  #              Directorship: Frank Neese              #
                  # Max Planck Institute for Chemical Energy Conversion #
                  #                  D-45470 Muelheim/Ruhr              #
                  #                       Germany                       #
                  #                                                     #
                  #                  All rights reserved                #
                  #                        -***-                        #
                  #######################################################


                         Program Version 3.0.3 - RELEASE   -


 With contributions from (in alphabetic order):
   Ute Becker             : Parallelization
   Dmytro Bykov           : SCF Hessian
   Dmitry Ganyushin       : Spin-Orbit,Spin-Spin,Magnetic field MRCI
   Andreas Hansen         : Spin unrestricted coupled pair/coupled cluster methods
   Dimitrios Liakos       : Extrapolation schemes; parallel MDCI
   Robert Izsak           : Overlap fitted RIJCOSX, COSX-SCS-MP3
   Christian Kollmar      : KDIIS, OOCD, Brueckner-CCSD(T), CCSD density
   Simone Kossmann        : Meta GGA functionals, TD-DFT gradient, OOMP2, MP2 Hessian
   Taras Petrenko         : DFT Hessian,TD-DFT gradient, ASA and ECA modules, normal mode analysis, Resonance Raman, ABS, FL, XAS/XES, NRVS
   Christoph Reimann      : Effective Core Potentials
   Michael Roemelt        : Restricted open shell CIS
   Christoph Riplinger    : Improved optimizer, TS searches, QM/MM, DLPNO-CCSD
   Barbara Sandhoefer     : DKH picture change effects
   Igor Schapiro          : Molecular dynamics
   Kantharuban Sivalingam : CASSCF convergence, NEVPT2
   Boris Wezisla          : Elementary symmetry handling
   Frank Wennmohs         : Technical directorship


 We gratefully acknowledge several colleagues who have allowed us to
 interface, adapt or use parts of their codes:
   Stefan Grimme, W. Hujo, H. Kruse, T. Risthaus : VdW corrections, initial TS optimization,
                                                   DFT functionals, gCP
   Ed Valeev                                     : LibInt (2-el integral package), F12 methods
   Garnet Chan, S. Sharma, R. Olivares           : DMRG
   Ulf Ekstrom                                   : XCFun DFT Library
   Mihaly Kallay                                 : mrcc  (arbitrary order and MRCC methods)
   Andreas Klamt, Michael Diedenhofen            : otool_cosmo (COSMO solvation model)
   Frank Weinhold                                : gennbo (NPA and NBO analysis)
   Christopher J. Cramer and Donald G. Truhlar   : smd solvation model


 Your calculation uses the libint2 library for the computation of 2-el integrals
 For citations please refer to: http://libint.valeyev.net

 This ORCA versions uses:
   CBLAS   interface :  Fast vector & matrix operations
   LAPACKE interface :  Fast linear algebra routines
   SCALAPACK package :  Parallel linear algebra routines


Your calculation utilizes the basis: Ahlrichs-TZV
Cite in your paper:
H - Kr: A. Schaefer, H. Horn and R. Ahlrichs, J. Chem. Phys. 97, 2571 (1992).

The def2-TZV basis will be loaded
Cite in your paper:
 	F. Weigend, R. Ahlrichs, Phys. Chem. Chem. Phys. 2005, 7, 3297.

Your calculation utilizes the atom-pairwise dispersion correction
with the Becke-Johnson damping scheme (D3BJ)
Cite in your paper:
S.Grimme, S.Ehrlich, L.Goerigk, J Comput Chem, (2011), 32, 1456–1465 
S.Grimme, J.Antony, S.Ehrlich and H.Krieg, J.Chem.Phys., 132, (2010), 154104 
   

================================================================================
                                        WARNINGS
                       Please study these warnings very carefully!
================================================================================

WARNING: The RI method has been chosen with no auxiliary basis (AUX or GTOAUX in BASIS block)
        Standard TZV/J expansion basis used (GTOAUX=TZV_J)

Now building the actual basis set
cite the ECPs for Pb [SD(60,MDF)] as follows:
  B. Metz, H. Stoll, M. Dolg, J. Chem. Phys. 113, 2563 (2000).

ECP parameters for Pb [SD(60,MDF)] have been obtained from:
  pseudopotential library of the Stuttgart/Cologne group
  http://www.theochem.uni-stuttgart.de/pseudopotentials/

cite the ECP basis sets for Pb [DEF2-TZVP] as follows:
  F. Weigend, R. Ahlrichs; Phys. Chem. Chem. Phys. 7, 3297(2005).

ECP basis sets for Pb [DEF2-TZVP] have been obtained from:
  Turbomole basis set library
  ftp://ftp.chemie.uni-karlsruhe.de/pub/basen/



INFO   : the flag for use of LIBINT has been found!

================================================================================
                                       INPUT FILE
================================================================================
NAME = PbMACl3_mp2_md_15.orca
|  1> ! RIJCOSX RI-B2PLYP D3BJ def2-TZVP ECP{def2-TZVP} TIGHTSCF Grid5 FinalGrid6 SlowConv MORead
|  2> %method
|  3>  RunTyp Gradient
|  4>  end
|  5> %maxcore 1000
|  6> %moinp "previous.gbw"
|  7> *xyz 0 1
|  8> C -2.717250 0.395654 0.059824 
|  9> N -2.453250 0.960148 -1.298120 
| 10> H -1.531830 1.167990 -1.597120 
| 11> H -2.913020 1.817080 -1.514510 
| 12> H -2.773830 0.277444 -1.975620 
| 13> H -2.158010 0.848039 0.877707 
| 14> H -2.425030 -0.628774 -0.129479 
| 15> H -3.774310 0.449954 0.204630 
| 16> Pb -2.901940 -2.653980 -2.312160 
| 17> Cl -1.272750 -4.408240 -2.777520 
| 18> Cl -2.598680 -0.604572 -3.575750 
| 19> Cl -4.145640 -2.485880 -0.193719 
| 20> *
| 21> 
| 22>                          ****END OF INPUT****
================================================================================

                     *******************************
                     * Energy+Gradient Calculation *
                     *******************************

---------------------------------
CARTESIAN COORDINATES (ANGSTROEM)
---------------------------------
  C     -2.717250    0.395654    0.059824
  N     -2.453250    0.960148   -1.298120
  H     -1.531830    1.167990   -1.597120
  H     -2.913020    1.817080   -1.514510
  H     -2.773830    0.277444   -1.975620
  H     -2.158010    0.848039    0.877707
  H     -2.425030   -0.628774   -0.129479
  H     -3.774310    0.449954    0.204630
  Pb    -2.901940   -2.653980   -2.312160
  Cl    -1.272750   -4.408240   -2.777520
  Cl    -2.598680   -0.604572   -3.575750
  Cl    -4.145640   -2.485880   -0.193719

----------------------------
CARTESIAN COORDINATES (A.U.)
----------------------------
  NO LB      ZA    FRAG    MASS        X           Y           Z
   0 C     6.0000    0    12.011         -5.134858337397521          0.747677703790479          0.113050976235705
   1 N     7.0000    0    14.007         -4.635970638042311          1.814416768032222         -2.453091288965855
   2 H     1.0000    0     1.008         -2.894739183724591          2.207181227158683         -3.018119403008310
   3 H     1.0000    0     1.008         -5.504810022635285          3.433783563425628         -2.862009127085075
   4 H     1.0000    0     1.008         -5.241779042054785          0.524293177499648         -3.733380744697503
   5 H     1.0000    0     1.008         -4.078047894263400          1.602561460884444          1.658625855825620
   6 H     1.0000    0     1.008         -4.582642566543053         -1.188210660130201         -0.244679850093990
   7 H     1.0000    0     1.008         -7.132412244520319          0.850289832862403          0.386694658784306
   8 Pb   22.0000*   0   207.200  -5.483871857071438  -5.015295364904323  -4.369349177807361
   9 Cl   17.0000    0    35.453         -2.405148936948273         -8.330366332597018         -5.248752131488954
  10 Cl   17.0000    0    35.453         -4.910793509698478         -1.142475508237039         -6.757188223368916
  11 Cl   17.0000    0    35.453         -7.834124249829298         -4.697632401792161         -0.366075856937091
* core charge reduced due to ECP

--------------------------------
INTERNAL COORDINATES (ANGSTROEM)
--------------------------------
 C      0   0   0   0.000000     0.000     0.000
 N      1   0   0   1.494109     0.000     0.000
 H      2   1   0   0.990764   121.189     0.000
 H      2   1   3   0.996266   116.157   237.594
 H      2   1   3   1.013836   107.282   118.320
 H      1   2   3   1.089190   115.775    43.021
 H      1   2   3   1.081980    98.684   282.535
 H      1   2   3   1.068313   106.190   168.863
 Pb     5   2   1   2.953459   139.308   324.106
 Cl     9   5   2   2.438903   134.966   287.041
 Cl     5   2   1   1.835496   151.161   217.089
 Cl     9   5   2   2.462283    81.727    56.927

---------------------------
INTERNAL COORDINATES (A.U.)
---------------------------
 C      0   0   0   0.000000     0.000     0.000
 N      1   0   0   2.823457     0.000     0.000
 H      2   1   0   1.872273   121.189     0.000
 H      2   1   3   1.882670   116.157   237.594
 H      2   1   3   1.915872   107.282   118.320
 H      1   2   3   2.058270   115.775    43.021
 H      1   2   3   2.044646    98.684   282.535
 H      1   2   3   2.018819   106.190   168.863
 Pb     5   2   1   5.581228   139.308   324.106
 Cl     9   5   2   4.608859   134.966   287.041
 Cl     5   2   1   3.468585   151.161   217.089
 Cl     9   5   2   4.653041    81.727    56.927

---------------------
BASIS SET INFORMATION
---------------------
There are 5 groups of distinct atoms

 Group   1 Type C   : 11s6p2d1f contracted to 5s3p2d1f pattern {62111/411/11/1}
 Group   2 Type N   : 11s6p2d1f contracted to 5s3p2d1f pattern {62111/411/11/1}
 Group   3 Type H   : 5s1p contracted to 3s1p pattern {311/1}
 Group   4 Type Pb  : 10s9p8d2f contracted to 6s5p3d2f pattern {421111/33111/611/11}
 Group   5 Type Cl  : 14s9p3d1f contracted to 5s5p2d1f pattern {73211/51111/21/1}

Atom   0C    basis set group =>   1
Atom   1N    basis set group =>   2
Atom   2H    basis set group =>   3
Atom   3H    basis set group =>   3
Atom   4H    basis set group =>   3
Atom   5H    basis set group =>   3
Atom   6H    basis set group =>   3
Atom   7H    basis set group =>   3
Atom   8Pb   basis set group =>   4
Atom   9Cl   basis set group =>   5
Atom  10Cl   basis set group =>   5
Atom  11Cl   basis set group =>   5
-------------------------------
AUXILIARY BASIS SET INFORMATION
-------------------------------
There are 5 groups of distinct atoms

 Group   1 Type C   : 12s5p4d2f1g contracted to 6s4p3d1f1g pattern {711111/2111/211/2/1}
 Group   2 Type N   : 12s5p4d2f1g contracted to 6s4p3d1f1g pattern {711111/2111/211/2/1}
 Group   3 Type H   : 5s2p1d contracted to 3s1p1d pattern {311/2/1}
 Group   4 Type Pb  : 31s12p8d6f3g contracted to 31s12p8d6f3g pattern {1111111111111111111111111111111/111111111111/11111111/111111/111}
 Group   5 Type Cl  : 14s5p5d2f1g contracted to 8s4p3d1f1g pattern {71111111/2111/311/2/1}

Atom   0C    basis set group =>   1
Atom   1N    basis set group =>   2
Atom   2H    basis set group =>   3
Atom   3H    basis set group =>   3
Atom   4H    basis set group =>   3
Atom   5H    basis set group =>   3
Atom   6H    basis set group =>   3
Atom   7H    basis set group =>   3
Atom   8Pb   basis set group =>   4
Atom   9Cl   basis set group =>   5
Atom  10Cl   basis set group =>   5
Atom  11Cl   basis set group =>   5

-------------------------
ECP PARAMETER INFORMATION
-------------------------

 Group 1, Type Pb ECP SD(60,MDF) (replacing 60 core electrons, lmax=5)

Atom   8Pb   ECP group =>   1


------------------------------------------------------------------------------
                           ORCA GTO INTEGRAL CALCULATION
                           -- RI-GTO INTEGRALS CHOSEN --
------------------------------------------------------------------------------

                         BASIS SET STATISTICS AND STARTUP INFO

Gaussian basis set:
 # of primitive gaussian shells          ...  186
 # of primitive gaussian functions       ...  420
 # of contracted shells                  ...  101
 # of contracted basis functions         ...  259
 Highest angular momentum                ...    3
 Maximum contraction depth               ...    7
Auxiliary gaussian basis set:
 # of primitive gaussian shells          ...  237
 # of primitive gaussian functions       ...  643
 # of contracted shells                  ...  171
 # of contracted aux-basis functions     ...  493
 Highest angular momentum                ...    4
 Maximum contraction depth               ...    7
Ratio of auxiliary to basis functions    ...  1.90
Integral package used                  ... LIBINT
 One Electron integrals                  
   ECP integrals                         ... done
 Ordering auxiliary basis shells         ... done
 Integral threshhold             Thresh  ...  2.500e-11
 Primitive cut-off               TCut    ...  2.500e-12
 Pre-screening matrix                    ... done
 Shell pair data                         ... 
 Ordering of the shell pairs             ... done (   0.001 sec) 4297 of 5151 pairs
 Determination of significant pairs      ... done (   0.000 sec)
 Creation of shell pair data             ... done (   0.002 sec)
 Storage of shell pair data              ... done (   0.002 sec)
 Shell pair data done in (   0.004 sec)
 Computing two index integrals           ... done
 Cholesky decomposition of the V-matrix  ... done


Timings:
 Total evaluation time                   ...   0.959 sec (  0.016 min)
 One electron matrix time                ...   0.450 sec (  0.008 min) = 47.0%
 Schwartz matrix evaluation time         ...   0.356 sec (  0.006 min) = 37.1%
 Two index repulsion integral time       ...   0.011 sec (  0.000 min) =  1.2%
 Cholesky decomposition of V             ...   0.098 sec (  0.002 min) = 10.3%
 Three index repulsion integral time     ...   0.000 sec (  0.000 min) =  0.0%

-------------------------------------------------------------------------------
                                 ORCA SCF
-------------------------------------------------------------------------------

------------
SCF SETTINGS
------------
Hamiltonian:
 Density Functional     Method          .... DFT(GTOs)
 Exchange Functional    Exchange        .... B88
   X-Alpha parameter    XAlpha          ....  0.666667
   Becke's b parameter  XBeta           ....  0.004200
 Correlation Functional Correlation     .... LYP
 LDA part of GGA corr.  LDAOpt          .... VWN-3
 Gradients option       PostSCFGGA      .... off
 Hybrid DFT is turned on
   Fraction HF Exchange ScalHFX         ....  0.530000
   Scaling of DF-GGA-X  ScalDFX         ....  0.470000
   Scaling of DF-GGA-C  ScalDFC         ....  0.730000
   Scaling of DF-LDA-C  ScalLDAC        ....  0.730000
   Perturbative correction              ....  0.270000
 RI-approximation to the Coulomb term is turned on
   Number of auxiliary basis functions  .... 493
   RIJ-COSX (HFX calculated with COS-X)).... on


General Settings:
 Integral files         IntName         .... PbMACl3_mp2_md_15.orca
 Hartree-Fock type      HFTyp           .... RHF
 Total Charge           Charge          ....    0
 Multiplicity           Mult            ....    1
 Number of Electrons    NEL             ....   92
 Basis Dimension        Dim             ....  259
 Nuclear Repulsion      ENuc            ....    591.1621443945 Eh

Convergence Acceleration:
 DIIS                   CNVDIIS         .... on
   Start iteration      DIISMaxIt       ....     0
   Startup error        DIISStart       ....  0.200000
   # of expansion vecs  DIISMaxEq       ....     5
   Bias factor          DIISBfac        ....   1.050
   Max. coefficient     DIISMaxC        ....  10.000
 Newton-Raphson         CNVNR           .... off
 SOSCF                  CNVSOSCF        .... on
   Start iteration      SOSCFMaxIt      ....   150
   Startup grad/error   SOSCFStart      ....  0.001000
 Level Shifting         CNVShift        .... on
   Level shift para.    LevelShift      ....    0.2500
   Turn off err/grad.   ShiftErr        ....    0.0000
 Zerner damping         CNVZerner       .... off
 Static damping         CNVDamp         .... on
   Fraction old density DampFac         ....    0.8500
   Max. Damping (<1)    DampMax         ....    0.9800
   Min. Damping (>=0)   DampMin         ....    0.0000
   Turn off err/grad.   DampErr         ....    0.0300
 Fernandez-Rico         CNVRico         .... off

SCF Procedure:
 Maximum # iterations   MaxIter         ....   125
 SCF integral mode      SCFMode         .... Direct
   Integral package                     .... LIBINT
 Reset frequeny         DirectResetFreq ....    20
 Integral Threshold     Thresh          ....  2.500e-11 Eh
 Primitive CutOff       TCut            ....  2.500e-12 Eh

Convergence Tolerance:
 Convergence Check Mode ConvCheckMode   .... Total+1el-Energy
 Energy Change          TolE            ....  1.000e-08 Eh
 1-El. energy change                    ....  1.000e-05 Eh
 Orbital Gradient       TolG            ....  1.000e-05
 Orbital Rotation angle TolX            ....  1.000e-05
 DIIS Error             TolErr          ....  5.000e-07


Diagonalization of the overlap matrix:
Smallest eigenvalue                        ... 8.077e-04
Time for diagonalization                   ...    0.108 sec
Threshold for overlap eigenvalues          ... 1.000e-08
Number of eigenvalues below threshold      ... 0
Time for construction of square roots      ...    0.010 sec
Total time needed                          ...    0.118 sec

---------------------
INITIAL GUESS: MOREAD
---------------------
Guess MOs are being read from file: previous.gbw
Input geometry compatible with but different from current geometry
Input basis set matches current basis set (good)
MOs were renormalized
MOs were reorthogonalized (Schmidt)
                      ------------------
                      INITIAL GUESS DONE (   0.1 sec)
                      ------------------
-------------------
DFT GRID GENERATION
-------------------

General Integration Accuracy     IntAcc      ...  5.010
Radial Grid Type                 RadialGrid  ... Gauss-Chebyshev
Angular Grid (max. acc.)         AngularGrid ... Lebedev-434
Angular grid pruning method      GridPruning ... 3 (G Style)
Weight generation scheme         WeightScheme... Becke
Basis function cutoff            BFCut       ...    1.0000e-11
Integration weight cutoff        WCut        ...    1.0000e-14
Grids for H and He will be reduced by one unit

# of grid points (after initial pruning)     ... 115882 (   0.1 sec)
# of grid points (after weights+screening)   ... 108724 (   0.4 sec)
nearest neighbour list constructed           ...    0.0 sec
Grid point re-assignment to atoms done       ...    0.1 sec
Grid point division into batches done        ...    1.1 sec
Reduced shell lists constructed in    3.5 sec

Total number of grid points                  ...   108724
Total number of batches                      ...     1706
Average number of points per batch           ...       63
Average number of grid points per atom       ...     9060
Average number of shells per batch           ...    53.41 (52.88%)
Average number of basis functions per batch  ...   140.35 (54.19%)
Average number of large shells per batch     ...    40.30 (75.47%)
Average number of large basis fcns per batch ...   104.07 (74.15%)
Maximum spatial batch extension              ...  39.73, 31.51, 36.22 au
Average spatial batch extension              ...   2.47,  2.35,  2.39 au

Time for grid setup =    3.956 sec

--------------------
COSX GRID GENERATION
--------------------

General Integration Accuracy     IntAcc      ...  3.340
Radial Grid Type                 RadialGrid  ... Gauss-Chebyshev
Angular Grid (max. acc.)         AngularGrid ... Lebedev-50
Angular grid pruning method      GridPruning ... 3 (G Style)
Weight generation scheme         WeightScheme... Becke
Basis function cutoff            BFCut       ...    1.0000e-11
Integration weight cutoff        WCut        ...    1.0000e-14
Grids for H and He will be reduced by one unit

# of grid points (after initial pruning)     ...   6578 (   0.0 sec)
# of grid points (after weights+screening)   ...   6277 (   0.0 sec)
nearest neighbour list constructed           ...    0.0 sec
Grid point re-assignment to atoms done       ...    0.0 sec
Grid point division into batches done        ...    0.0 sec
Reduced shell lists constructed in    0.2 sec

Total number of grid points                  ...     6277
Total number of batches                      ...      104
Average number of points per batch           ...       60
Average number of grid points per atom       ...      523
Average number of shells per batch           ...    64.44 (63.80%)
Average number of basis functions per batch  ...   172.00 (66.41%)
Average number of large shells per batch     ...    50.29 (78.04%)
Average number of large basis fcns per batch ...   131.66 (76.54%)
Maximum spatial batch extension              ...  30.84, 26.25, 36.32 au
Average spatial batch extension              ...   6.72,  6.13,  6.69 au

Overlap Fitting                  UseSFitting ... on
Constructing numerical overlap ... done (      0.1 sec)
Inverting numerical overlap    ... done (      0.0 sec)
Obtaining analytic overlap     ... done (      0.0 sec)
Final contraction and storage  ... done (      0.0 sec)


General Integration Accuracy     IntAcc      ...  3.670
Radial Grid Type                 RadialGrid  ... Gauss-Chebyshev
Angular Grid (max. acc.)         AngularGrid ... Lebedev-50
Angular grid pruning method      GridPruning ... 3 (G Style)
Weight generation scheme         WeightScheme... Becke
Basis function cutoff            BFCut       ...    1.0000e-11
Integration weight cutoff        WCut        ...    1.0000e-14
Grids for H and He will be reduced by one unit

# of grid points (after initial pruning)     ...   8124 (   0.0 sec)
# of grid points (after weights+screening)   ...   7736 (   0.0 sec)
nearest neighbour list constructed           ...    0.0 sec
Grid point re-assignment to atoms done       ...    0.0 sec
Grid point division into batches done        ...    0.0 sec
Reduced shell lists constructed in    0.2 sec

Total number of grid points                  ...     7736
Total number of batches                      ...      126
Average number of points per batch           ...       61
Average number of grid points per atom       ...      645
Average number of shells per batch           ...    63.80 (63.16%)
Average number of basis functions per batch  ...   169.97 (65.62%)
Average number of large shells per batch     ...    49.20 (77.13%)
Average number of large basis fcns per batch ...   128.21 (75.43%)
Maximum spatial batch extension              ...  30.53, 25.76, 37.91 au
Average spatial batch extension              ...   6.02,  5.81,  6.20 au

Overlap Fitting                  UseSFitting ... on
Constructing numerical overlap ... done (      0.1 sec)
Inverting numerical overlap    ... done (      0.0 sec)
Obtaining analytic overlap     ... done (      0.0 sec)
Final contraction and storage  ... done (      0.0 sec)


General Integration Accuracy     IntAcc      ...  4.010
Radial Grid Type                 RadialGrid  ... Gauss-Chebyshev
Angular Grid (max. acc.)         AngularGrid ... Lebedev-110
Angular grid pruning method      GridPruning ... 3 (G Style)
Weight generation scheme         WeightScheme... Becke
Basis function cutoff            BFCut       ...    1.0000e-11
Integration weight cutoff        WCut        ...    1.0000e-14
Grids for H and He will be reduced by one unit

# of grid points (after initial pruning)     ...  15170 (   0.0 sec)
# of grid points (after weights+screening)   ...  14450 (   0.1 sec)
nearest neighbour list constructed           ...    0.0 sec
Grid point re-assignment to atoms done       ...    0.0 sec
Grid point division into batches done        ...    0.0 sec
Reduced shell lists constructed in    0.4 sec

Total number of grid points                  ...    14450
Total number of batches                      ...      230
Average number of points per batch           ...       62
Average number of grid points per atom       ...     1204
Average number of shells per batch           ...    60.47 (59.87%)
Average number of basis functions per batch  ...   160.92 (62.13%)
Average number of large shells per batch     ...    46.33 (76.61%)
Average number of large basis fcns per batch ...   121.39 (75.43%)
Maximum spatial batch extension              ...  39.26, 27.36, 34.29 au
Average spatial batch extension              ...   5.07,  4.61,  4.81 au

Overlap Fitting                  UseSFitting ... on
Constructing numerical overlap ... done (      0.2 sec)
Inverting numerical overlap    ... done (      0.0 sec)
Obtaining analytic overlap     ... done (      0.0 sec)
Final contraction and storage  ... done (      0.0 sec)

Time for X-Grid setup             =    1.509 sec
--------------
SCF ITERATIONS
--------------
ITER       Energy         Delta-E        Max-DP      RMS-DP      [F,P]     Damp
               ***  Starting incremental Fock matrix formation  ***
  0  -1663.4965870047   0.000000000000 0.11303795  0.00220780  0.7094986 0.8500
  1  -1664.2652951841  -0.768708179337 0.09792327  0.00194800  0.6036586 0.8500
                               ***Turning on DIIS***
  2  -1664.9130671230  -0.647771938935 0.07940845  0.00166718  0.5133311 0.8500
  3  -1665.4658657283  -0.552798605277 0.06291981  0.00141765  0.4365011 0.8500
  4  -1665.9450156486  -0.479149920259 0.05120496  0.00122152  0.3711225 0.8500
  5  -1666.3589462196  -0.413930571036 0.04260339  0.00105897  0.3154967 0.8500
  6  -1666.7186546548  -0.359708435207 0.03626517  0.00091514  0.2681887 0.8500
  7  -1667.0318883057  -0.313233650892 0.03120850  0.00078740  0.2279677 0.8500
  8  -1667.3042047042  -0.272316398497 0.02698401  0.00067473  0.1937792 0.8500
  9  -1667.5395237505  -0.235319046301 0.02308821  0.00057674  0.1647185 0.8500
 10  -1667.7421402253  -0.202616474803 0.01958720  0.00049265  0.1400161 0.8500
 11  -1667.9162949652  -0.174154739948 0.01659767  0.00042087  0.1190184 0.8500
 12  -1668.0657971373  -0.149502172079 0.01409541  0.00035959  0.1011696 0.8500
 13  -1668.1939704719  -0.128173334535 0.01199529  0.00030716  0.0859975 0.8500
 14  -1668.3037089706  -0.109738498740 0.01020749  0.00026228  0.0731007 0.8500
 15  -1668.3975537529  -0.093844782337 0.00867683  0.00022393  0.0621381 0.8500
 16  -1668.4777328087  -0.080179055758 0.00737169  0.00019120  0.0528195 0.8500
 17  -1668.5461855399  -0.068452731176 0.00626429  0.00016328  0.0448984 0.8500
 18  -1668.6045902288  -0.058404688937 0.00532577  0.00013945  0.0381652 0.8500
 19  -1668.6543943552  -0.049804126365 0.00452881  0.00011912  0.0324418 0.8500
               *** Restarting incremental Fock matrix formation ***
                                   *** Resetting DIIS ***
 20  -1668.6993663577  -0.044972002509 0.02518519  0.00064988  0.0275773 0.0000
 21  -1668.9417454796  -0.242379121885 0.00446584  0.00007755  0.0102951 0.0000
 22  -1668.9419384084  -0.000192928873 0.00192071  0.00003362  0.0047845 0.0000
                      *** Initiating the SOSCF procedure ***
                           *** Shutting down DIIS ***
                      *** Re-Reading the Fockian *** 
                      *** Removing any level shift *** 
ITER      Energy       Delta-E        Grad      Rot      Max-DP    RMS-DP
 23  -1668.94198845  -0.0000500454  0.000527  0.000527  0.000619  0.000015
               *** Restarting incremental Fock matrix formation ***
 24  -1668.93960894   0.0023795104  0.000464  0.002378  0.003175  0.000041
 25  -1668.93961093  -0.0000019911  0.000143  0.001655  0.001261  0.000022
 26  -1668.93961026   0.0000006759  0.000124  0.000275  0.000836  0.000010
 27  -1668.93961140  -0.0000011382  0.000026  0.000029  0.000197  0.000002
 28  -1668.93961163  -0.0000002313  0.000008  0.000031  0.000051  0.000001
 29  -1668.93961167  -0.0000000368  0.000004  0.000010  0.000025  0.000000
                  ***Gradient check signals convergence***
              ***Rediagonalizing the Fockian in SOSCF/NRSCF***

               *****************************************************
               *                     SUCCESS                       *
               *           SCF CONVERGED AFTER  30 CYCLES          *
               *****************************************************

Old exchange energy                            =    -59.275456575 Eh
New exchange energy                            =    -59.277858113 Eh
Exchange energy change after final integration =     -0.002401538 Eh
Total energy after final integration           =  -1668.942013176 Eh
Final COS-X integration done in                =    32.035 sec

----------------
TOTAL SCF ENERGY
----------------

Total Energy       :        -1668.94201318 Eh          -45414.22099 eV

Components:
Nuclear Repulsion  :          591.16214439 Eh           16086.33976 eV
Electronic Energy  :        -2260.10415757 Eh          -61500.56076 eV

One Electron Energy:        -3553.49815662 Eh          -96695.60075 eV
Two Electron Energy:         1293.39399905 Eh           35195.04000 eV

Virial components:
Potential Energy   :        -3207.40134760 Eh          -87277.82779 eV
Kinetic Energy     :         1538.45933442 Eh           41863.60679 eV
Virial Ratio       :            2.08481386


DFT components:
N(Alpha)           :       46.000031210912 electrons
N(Beta)            :       46.000031210912 electrons
N(Total)           :       92.000062421824 electrons
E(X)               :      -52.642319168693 Eh       
E(C)               :       -2.613906494407 Eh       
E(XC)              :      -55.256225663101 Eh       

---------------
SCF CONVERGENCE
---------------

  Last Energy change         ...    2.6905e-08  Tolerance :   1.0000e-08
  Last MAX-Density change    ...    2.3137e-13  Tolerance :   1.0000e-07
  Last RMS-Density change    ...    2.0710e-15  Tolerance :   5.0000e-09
  Last Orbital Gradient      ...    6.0144e-07  Tolerance :   1.0000e-05
  Last Orbital Rotation      ...    1.1109e-06  Tolerance :   1.0000e-05

             **** THE GBW FILE WAS UPDATED (PbMACl3_mp2_md_15.orca.gbw) ****
             **** DENSITY FILE WAS UPDATED (PbMACl3_mp2_md_15.orca.scfp.tmp) ****
             **** ENERGY FILE WAS UPDATED (PbMACl3_mp2_md_15.orca.en.tmp) ****
----------------
ORBITAL ENERGIES
----------------

  NO   OCC          E(Eh)            E(eV) 
   0   2.0000    -102.866385     -2799.1367 
   1   2.0000    -102.827519     -2798.0790 
   2   2.0000    -102.817084     -2797.7951 
   3   2.0000     -14.995494      -408.0481 
   4   2.0000     -10.719870      -291.7025 
   5   2.0000      -9.877541      -268.7815 
   6   2.0000      -9.836571      -267.6667 
   7   2.0000      -9.825353      -267.3614 
   8   2.0000      -7.513639      -204.4565 
   9   2.0000      -7.513014      -204.4395 
  10   2.0000      -7.512421      -204.4234 
  11   2.0000      -7.473055      -203.3522 
  12   2.0000      -7.471912      -203.3211 
  13   2.0000      -7.471730      -203.3161 
  14   2.0000      -7.462011      -203.0517 
  15   2.0000      -7.460746      -203.0172 
  16   2.0000      -7.460398      -203.0077 
  17   2.0000      -5.773321      -157.1001 
  18   2.0000      -3.547171       -96.5234 
  19   2.0000      -3.543903       -96.4345 
  20   2.0000      -3.541883       -96.3795 
  21   2.0000      -1.195587       -32.5336 
  22   2.0000      -0.962414       -26.1886 
  23   2.0000      -0.947929       -25.7945 
  24   2.0000      -0.946440       -25.7540 
  25   2.0000      -0.936896       -25.4942 
  26   2.0000      -0.935676       -25.4610 
  27   2.0000      -0.899236       -24.4695 
  28   2.0000      -0.889346       -24.2003 
  29   2.0000      -0.849387       -23.1130 
  30   2.0000      -0.835017       -22.7220 
  31   2.0000      -0.724194       -19.7063 
  32   2.0000      -0.713864       -19.4252 
  33   2.0000      -0.623550       -16.9677 
  34   2.0000      -0.552354       -15.0303 
  35   2.0000      -0.547641       -14.9021 
  36   2.0000      -0.536880       -14.6093 
  37   2.0000      -0.400874       -10.9083 
  38   2.0000      -0.391193       -10.6449 
  39   2.0000      -0.381996       -10.3946 
  40   2.0000      -0.360255        -9.8030 
  41   2.0000      -0.336386        -9.1535 
  42   2.0000      -0.330948        -9.0055 
  43   2.0000      -0.318484        -8.6664 
  44   2.0000      -0.315718        -8.5911 
  45   2.0000      -0.226701        -6.1688 
  46   0.0000      -0.031585        -0.8595 
  47   0.0000      -0.002210        -0.0601 
  48   0.0000       0.053057         1.4437 
  49   0.0000       0.061091         1.6624 
  50   0.0000       0.072187         1.9643 
  51   0.0000       0.090332         2.4580 
  52   0.0000       0.106899         2.9089 
  53   0.0000       0.109935         2.9915 
  54   0.0000       0.128791         3.5046 
  55   0.0000       0.141168         3.8414 
  56   0.0000       0.157488         4.2855 
  57   0.0000       0.163515         4.4495 
  58   0.0000       0.183875         5.0035 
  59   0.0000       0.192146         5.2286 
  60   0.0000       0.205940         5.6039 
  61   0.0000       0.244604         6.6560 
  62   0.0000       0.256280         6.9737 
  63   0.0000       0.266803         7.2601 
  64   0.0000       0.277813         7.5597 
  65   0.0000       0.297868         8.1054 
  66   0.0000       0.324170         8.8211 
  67   0.0000       0.328734         8.9453 
  68   0.0000       0.329732         8.9725 
  69   0.0000       0.370719        10.0878 
  70   0.0000       0.388955        10.5840 
  71   0.0000       0.399483        10.8705 
  72   0.0000       0.413819        11.2606 
  73   0.0000       0.428745        11.6667 
  74   0.0000       0.441151        12.0043 
  75   0.0000       0.444639        12.0992 
  76   0.0000       0.456155        12.4126 
  77   0.0000       0.460544        12.5320 
  78   0.0000       0.467655        12.7255 
  79   0.0000       0.478097        13.0097 
  80   0.0000       0.489593        13.3225 
  81   0.0000       0.492299        13.3961 
  82   0.0000       0.499875        13.6023 
  83   0.0000       0.509087        13.8530 
  84   0.0000       0.515917        14.0388 
  85   0.0000       0.530606        14.4385 
  86   0.0000       0.543712        14.7951 
  87   0.0000       0.547698        14.9036 
  88   0.0000       0.550442        14.9783 
  89   0.0000       0.563057        15.3216 
  90   0.0000       0.574569        15.6348 
  91   0.0000       0.591634        16.0992 
  92   0.0000       0.604009        16.4359 
  93   0.0000       0.614900        16.7323 
  94   0.0000       0.626929        17.0596 
  95   0.0000       0.639330        17.3970 
  96   0.0000       0.648687        17.6517 
  97   0.0000       0.655026        17.8242 
  98   0.0000       0.685055        18.6413 
  99   0.0000       0.713475        19.4147 
 100   0.0000       0.747420        20.3383 
 101   0.0000       0.759750        20.6738 
 102   0.0000       0.774848        21.0847 
 103   0.0000       0.795197        21.6384 
 104   0.0000       0.800584        21.7850 
 105   0.0000       0.805657        21.9230 
 106   0.0000       0.853038        23.2124 
 107   0.0000       0.878537        23.9062 
 108   0.0000       0.905989        24.6532 
 109   0.0000       0.918707        24.9993 
 110   0.0000       0.934072        25.4174 
 111   0.0000       0.936602        25.4862 
 112   0.0000       0.947297        25.7773 
 113   0.0000       0.960959        26.1490 
 114   0.0000       0.979353        26.6496 
 115   0.0000       1.002901        27.2903 
 116   0.0000       1.020828        27.7781 
 117   0.0000       1.054239        28.6873 
 118   0.0000       1.072629        29.1877 
 119   0.0000       1.085746        29.5447 
 120   0.0000       1.108835        30.1729 
 121   0.0000       1.125919        30.6378 
 122   0.0000       1.153419        31.3861 
 123   0.0000       1.177446        32.0399 
 124   0.0000       1.229237        33.4492 
 125   0.0000       1.273918        34.6651 
 126   0.0000       1.304347        35.4931 
 127   0.0000       1.330072        36.1931 
 128   0.0000       1.357291        36.9338 
 129   0.0000       1.372876        37.3579 
 130   0.0000       1.414810        38.4989 
 131   0.0000       1.525589        41.5134 
 132   0.0000       1.549799        42.1722 
 133   0.0000       1.573065        42.8053 
 134   0.0000       1.620728        44.1022 
 135   0.0000       1.637676        44.5634 
 136   0.0000       1.693763        46.0896 
 137   0.0000       1.775673        48.3185 
 138   0.0000       1.834867        49.9293 
 139   0.0000       1.841530        50.1106 
 140   0.0000       1.872243        50.9463 
 141   0.0000       1.916153        52.1412 
 142   0.0000       1.942881        52.8685 
 143   0.0000       1.948314        53.0163 
 144   0.0000       1.958136        53.2836 
 145   0.0000       1.967687        53.5435 
 146   0.0000       1.970848        53.6295 
 147   0.0000       1.978927        53.8493 
 148   0.0000       1.999160        54.3999 
 149   0.0000       2.004799        54.5534 
 150   0.0000       2.012621        54.7662 
 151   0.0000       2.032670        55.3118 
 152   0.0000       2.044105        55.6229 
 153   0.0000       2.047688        55.7204 
 154   0.0000       2.081742        56.6471 
 155   0.0000       2.093146        56.9574 
 156   0.0000       2.105895        57.3043 
 157   0.0000       2.111046        57.4445 
 158   0.0000       2.123312        57.7782 
 159   0.0000       2.132092        58.0172 
 160   0.0000       2.153060        58.5877 
 161   0.0000       2.157331        58.7040 
 162   0.0000       2.169803        59.0433 
 163   0.0000       2.178863        59.2899 
 164   0.0000       2.187164        59.5158 
 165   0.0000       2.189287        59.5735 
 166   0.0000       2.197537        59.7980 
 167   0.0000       2.220761        60.4300 
 168   0.0000       2.240770        60.9744 
 169   0.0000       2.249550        61.2134 
 170   0.0000       2.262656        61.5700 
 171   0.0000       2.264307        61.6149 
 172   0.0000       2.270764        61.7906 
 173   0.0000       2.276445        61.9452 
 174   0.0000       2.286290        62.2131 
 175   0.0000       2.287197        62.2378 
 176   0.0000       2.294876        62.4468 
 177   0.0000       2.321226        63.1638 
 178   0.0000       2.330660        63.4205 
 179   0.0000       2.334932        63.5367 
 180   0.0000       2.343724        63.7760 
 181   0.0000       2.362108        64.2762 
 182   0.0000       2.371140        64.5220 
 183   0.0000       2.378200        64.7141 
 184   0.0000       2.385540        64.9138 
 185   0.0000       2.400350        65.3168 
 186   0.0000       2.430175        66.1284 
 187   0.0000       2.433940        66.2309 
 188   0.0000       2.444332        66.5137 
 189   0.0000       2.448973        66.6399 
 190   0.0000       2.455469        66.8167 
 191   0.0000       2.479240        67.4635 
 192   0.0000       2.488193        67.7072 
 193   0.0000       2.497173        67.9515 
 194   0.0000       2.503669        68.1283 
 195   0.0000       2.510679        68.3191 
 196   0.0000       2.563513        69.7567 
 197   0.0000       2.581446        70.2447 
 198   0.0000       2.591560        70.5199 
 199   0.0000       2.620677        71.3122 
 200   0.0000       2.651775        72.1585 
 201   0.0000       2.662821        72.4590 
 202   0.0000       2.680178        72.9314 
 203   0.0000       2.724112        74.1269 
 204   0.0000       2.759345        75.0856 
 205   0.0000       2.781886        75.6990 
 206   0.0000       2.811294        76.4992 
 207   0.0000       2.854606        77.6778 
 208   0.0000       2.890504        78.6546 
 209   0.0000       2.916994        79.3755 
 210   0.0000       3.019436        82.1630 
 211   0.0000       3.079256        83.7908 
 212   0.0000       3.132984        85.2528 
 213   0.0000       3.187130        86.7262 
 214   0.0000       3.244219        88.2797 
 215   0.0000       3.271698        89.0274 
 216   0.0000       3.331350        90.6506 
 217   0.0000       3.481522        94.7370 
 218   0.0000       3.508181        95.4625 
 219   0.0000       3.574833        97.2761 
 220   0.0000       3.597388        97.8899 
 221   0.0000       3.655579        99.4734 
 222   0.0000       3.682124       100.1957 
 223   0.0000       3.768825       102.5549 
 224   0.0000       3.946854       107.3994 
 225   0.0000       4.202604       114.3587 
 226   0.0000       4.226680       115.0138 
 227   0.0000       4.394564       119.5822 
 228   0.0000       4.566954       124.2731 
 229   0.0000       4.755965       129.4164 
 230   0.0000       4.820530       131.1733 
 231   0.0000       4.882080       132.8481 
 232   0.0000       4.933244       134.2404 
 233   0.0000       5.097100       138.6991 
 234   0.0000       5.115527       139.2006 
 235   0.0000       5.145539       140.0172 
 236   0.0000       5.230741       142.3357 
 237   0.0000       5.538400       150.7075 
 238   0.0000       5.637898       153.4150 
 239   0.0000       5.880127       160.0064 
 240   0.0000      11.050755       300.7063 
 241   0.0000      11.087465       301.7053 
 242   0.0000      11.093253       301.8628 
 243   0.0000      11.103206       302.1336 
 244   0.0000      11.123456       302.6846 
 245   0.0000      11.180220       304.2292 
 246   0.0000      11.215499       305.1893 
 247   0.0000      11.237980       305.8010 
 248   0.0000      11.266234       306.5698 
 249   0.0000      22.661875       616.6610 
 250   0.0000      25.230075       686.5452 
 251   0.0000      25.336255       689.4345 
 252   0.0000      25.521528       694.4761 
 253   0.0000      32.342576       880.0862 
 254   0.0000      35.667417       970.5597 
 255   0.0000      35.789151       973.8723 
 256   0.0000      35.891140       976.6476 
 257   0.0000      35.944152       978.0901 
 258   0.0000     123.676388      3365.4056 

                    ********************************
                    * MULLIKEN POPULATION ANALYSIS *
                    ********************************

-----------------------
MULLIKEN ATOMIC CHARGES
-----------------------
   0 C :   -0.219704
   1 N :   -0.281896
   2 H :    0.281081
   3 H :    0.268720
   4 H :    0.292071
   5 H :    0.160542
   6 H :    0.154801
   7 H :    0.172833
   8 Pb:    0.819136
   9 Cl:   -0.532071
  10 Cl:   -0.550626
  11 Cl:   -0.564887
Sum of atomic charges:   -0.0000000

--------------------------------
MULLIKEN REDUCED ORBITAL CHARGES
--------------------------------
  0 C s       :     3.269267  s :     3.269267
      pz      :     0.763017  p :     2.881365
      px      :     1.095568
      py      :     1.022779
      dz2     :     0.017417  d :     0.063166
      dxz     :     0.011480
      dyz     :     0.016572
      dx2y2   :     0.010507
      dxy     :     0.007190
      f0      :     0.001365  f :     0.005905
      f+1     :     0.001061
      f-1     :     0.001448
      f+2     :     0.000596
      f-2     :     0.000589
      f+3     :     0.000682
      f-3     :     0.000163
  1 N s       :     3.402187  s :     3.402187
      pz      :     1.273087  p :     3.829912
      px      :     1.272788
      py      :     1.284037
      dz2     :     0.010390  d :     0.047508
      dxz     :     0.011154
      dyz     :     0.013169
      dx2y2   :     0.008170
      dxy     :     0.004624
      f0      :     0.000567  f :     0.002290
      f+1     :     0.000287
      f-1     :     0.000510
      f+2     :     0.000259
      f-2     :     0.000149
      f+3     :     0.000439
      f-3     :     0.000079
  2 H s       :     0.681382  s :     0.681382
      pz      :     0.009131  p :     0.037538
      px      :     0.020084
      py      :     0.008323
  3 H s       :     0.694705  s :     0.694705
      pz      :     0.008096  p :     0.036575
      px      :     0.010240
      py      :     0.018238
  4 H s       :     0.654489  s :     0.654489
      pz      :     0.025852  p :     0.053440
      px      :     0.008579
      py      :     0.019009
  5 H s       :     0.817913  s :     0.817913
      pz      :     0.010173  p :     0.021545
      px      :     0.006333
      py      :     0.005039
  6 H s       :     0.820411  s :     0.820411
      pz      :     0.003451  p :     0.024788
      px      :     0.004960
      py      :     0.016377
  7 H s       :     0.804060  s :     0.804060
      pz      :     0.003526  p :     0.023107
      px      :     0.015349
      py      :     0.004232
  8 Pbs       :     3.991863  s :     3.991863
      pz      :     2.305904  p :     6.921700
      px      :     2.311887
      py      :     2.303909
      dz2     :     2.032809  d :    10.187543
      dxz     :     2.041830
      dyz     :     2.036333
      dx2y2   :     2.035625
      dxy     :     2.040946
      f0      :     0.012008  f :     0.079758
      f+1     :     0.010873
      f-1     :     0.012165
      f+2     :     0.011567
      f-2     :     0.010406
      f+3     :     0.011617
      f-3     :     0.011122
  9 Cls       :     5.947345  s :     5.947345
      pz      :     3.897191  p :    11.562921
      px      :     3.861678
      py      :     3.804053
      dz2     :     0.003039  d :     0.020753
      dxz     :     0.002012
      dyz     :     0.002778
      dx2y2   :     0.003745
      dxy     :     0.009179
      f0      :     0.000102  f :     0.001052
      f+1     :     0.000096
      f-1     :     0.000118
      f+2     :     0.000030
      f-2     :     0.000182
      f+3     :     0.000276
      f-3     :     0.000249
 10 Cls       :     5.949430  s :     5.949430
      pz      :     3.821818  p :    11.569548
      px      :     3.924715
      py      :     3.823015
      dz2     :     0.007248  d :     0.030261
      dxz     :     0.003284
      dyz     :     0.011726
      dx2y2   :     0.005685
      dxy     :     0.002318
      f0      :     0.000189  f :     0.001387
      f+1     :     0.000048
      f-1     :     0.000383
      f+2     :     0.000343
      f-2     :     0.000112
      f+3     :     0.000138
      f-3     :     0.000175
 11 Cls       :     5.949189  s :     5.949189
      pz      :     3.843138  p :    11.593845
      px      :     3.837152
      py      :     3.913555
      dz2     :     0.007260  d :     0.020906
      dxz     :     0.007790
      dyz     :     0.002469
      dx2y2   :     0.001831
      dxy     :     0.001556
      f0      :     0.000174  f :     0.000948
      f+1     :     0.000379
      f-1     :     0.000087
      f+2     :     0.000149
      f-2     :     0.000100
      f+3     :     0.000034
      f-3     :     0.000025


                     *******************************
                     * LOEWDIN POPULATION ANALYSIS *
                     *******************************

----------------------
LOEWDIN ATOMIC CHARGES
----------------------
   0 C :   -0.262226
   1 N :    0.128628
   2 H :    0.181044
   3 H :    0.183352
   4 H :    0.109862
   5 H :    0.121262
   6 H :    0.118649
   7 H :    0.125611
   8 Pb:   -0.180027
   9 Cl:   -0.187176
  10 Cl:   -0.125685
  11 Cl:   -0.213293

-------------------------------
LOEWDIN REDUCED ORBITAL CHARGES
-------------------------------
  0 C s       :     2.855899  s :     2.855899
      pz      :     0.895258  p :     3.078628
      px      :     1.112252
      py      :     1.071118
      dz2     :     0.096129  d :     0.290510
      dxz     :     0.057120
      dyz     :     0.064912
      dx2y2   :     0.050288
      dxy     :     0.022061
      f0      :     0.009595  f :     0.037189
      f+1     :     0.006855
      f-1     :     0.008523
      f+2     :     0.002803
      f-2     :     0.005313
      f+3     :     0.003013
      f-3     :     0.001086
  1 N s       :     2.966592  s :     2.966592
      pz      :     1.264569  p :     3.725621
      px      :     1.230978
      py      :     1.230074
      dz2     :     0.036502  d :     0.168668
      dxz     :     0.036642
      dyz     :     0.046975
      dx2y2   :     0.028129
      dxy     :     0.020420
      f0      :     0.001547  f :     0.010492
      f+1     :     0.001874
      f-1     :     0.001630
      f+2     :     0.001886
      f-2     :     0.001660
      f+3     :     0.001464
      f-3     :     0.000431
  2 H s       :     0.708251  s :     0.708251
      pz      :     0.026570  p :     0.110705
      px      :     0.059203
      py      :     0.024932
  3 H s       :     0.708074  s :     0.708074
      pz      :     0.024408  p :     0.108574
      px      :     0.030593
      py      :     0.053573
  4 H s       :     0.712897  s :     0.712897
      pz      :     0.085664  p :     0.177241
      px      :     0.025974
      py      :     0.065602
  5 H s       :     0.815546  s :     0.815546
      pz      :     0.026818  p :     0.063192
      px      :     0.019702
      py      :     0.016672
  6 H s       :     0.811691  s :     0.811691
      pz      :     0.011296  p :     0.069660
      px      :     0.014943
      py      :     0.043422
  7 H s       :     0.806893  s :     0.806893
      pz      :     0.010966  p :     0.067496
      px      :     0.042968
      py      :     0.013562
  8 Pbs       :     3.704931  s :     3.704931
      pz      :     2.475362  p :     7.414903
      px      :     2.446353
      py      :     2.493188
      dz2     :     2.140674  d :    10.795571
      dxz     :     2.174047
      dyz     :     2.171989
      dx2y2   :     2.141777
      dxy     :     2.167084
      f0      :     0.038310  f :     0.264622
      f+1     :     0.042426
      f-1     :     0.034675
      f+2     :     0.047271
      f-2     :     0.029048
      f+3     :     0.037048
      f-3     :     0.035844
  9 Cls       :     5.728427  s :     5.728427
      pz      :     3.837951  p :    11.411009
      px      :     3.810712
      py      :     3.762346
      dz2     :     0.008380  d :     0.044936
      dxz     :     0.002894
      dyz     :     0.003357
      dx2y2   :     0.003015
      dxy     :     0.027289
      f0      :     0.000213  f :     0.002804
      f+1     :     0.000325
      f-1     :     0.000350
      f+2     :     0.000025
      f-2     :     0.000376
      f+3     :     0.000804
      f-3     :     0.000711
 10 Cls       :     5.695488  s :     5.695488
      pz      :     3.738860  p :    11.355372
      px      :     3.862030
      py      :     3.754481
      dz2     :     0.009456  d :     0.070561
      dxz     :     0.003421
      dyz     :     0.034552
      dx2y2   :     0.018036
      dxy     :     0.005096
      f0      :     0.000656  f :     0.004265
      f+1     :     0.000053
      f-1     :     0.000991
      f+2     :     0.001399
      f-2     :     0.000311
      f+3     :     0.000287
      f-3     :     0.000568
 11 Cls       :     5.733196  s :     5.733196
      pz      :     3.799337  p :    11.428523
      px      :     3.786458
      py      :     3.842728
      dz2     :     0.019782  d :     0.048821
      dxz     :     0.021416
      dyz     :     0.002802
      dx2y2   :     0.002747
      dxy     :     0.002074
      f0      :     0.000405  f :     0.002753
      f+1     :     0.001587
      f-1     :     0.000133
      f+2     :     0.000400
      f-2     :     0.000132
      f+3     :     0.000061
      f-3     :     0.000035


                      *****************************
                      * MAYER POPULATION ANALYSIS *
                      *****************************

  NA   - Mulliken gross atomic population
  ZA   - Total nuclear charge
  QA   - Mulliken gross atomic charge
  VA   - Mayer's total valence
  BVA  - Mayer's bonded valence
  FA   - Mayer's free valence

  ATOM       NA         ZA         QA         VA         BVA        FA
  0 C      6.2197     6.0000    -0.2197     3.7865     3.7865     0.0000
  1 N      7.2819     7.0000    -0.2819     3.4162     3.4162     0.0000
  2 H      0.7189     1.0000     0.2811     0.9320     0.9320    -0.0000
  3 H      0.7313     1.0000     0.2687     0.9315     0.9315    -0.0000
  4 H      0.7079     1.0000     0.2921     0.9954     0.9954     0.0000
  5 H      0.8395     1.0000     0.1605     0.9656     0.9656     0.0000
  6 H      0.8452     1.0000     0.1548     0.9866     0.9866    -0.0000
  7 H      0.8272     1.0000     0.1728     0.9731     0.9731     0.0000
  8 Pb    21.1809    22.0000     0.8191     1.8936     1.8936     0.0000
  9 Cl    17.5321    17.0000    -0.5321     0.8052     0.8052    -0.0000
 10 Cl    17.5506    17.0000    -0.5506     0.7446     0.7446    -0.0000
 11 Cl    17.5649    17.0000    -0.5649     0.7206     0.7206    -0.0000

  Mayer bond orders larger than 0.1
B(  0-C ,  1-N ) :   0.8628 B(  0-C ,  5-H ) :   0.9651 B(  0-C ,  6-H ) :   0.9577 
B(  0-C ,  7-H ) :   0.9620 B(  1-N ,  2-H ) :   0.9042 B(  1-N ,  3-H ) :   0.9084 
B(  1-N ,  4-H ) :   0.7702 B(  4-H , 10-Cl) :   0.2368 B(  8-Pb,  9-Cl) :   0.7809 
B(  8-Pb, 10-Cl) :   0.4788 B(  8-Pb, 11-Cl) :   0.6276 

-------
TIMINGS
-------

Total SCF time: 0 days 0 hours 9 min 54 sec 

Total time                  ....     594.328 sec
Sum of individual times     ....     560.889 sec  ( 94.4%)

Fock matrix formation       ....     553.532 sec  ( 93.1%)
  Coulomb formation         ....     452.526 sec  ( 81.8% of F)
  Split-RI-J                ....      39.180 sec  (  7.1% of F)
  Chain of spheres X        ....     445.234 sec  ( 80.4% of F)
  COS-X 1 center corr.      ....       0.000 sec  (  0.0% of F)
  XC integration            ....     101.035 sec  ( 18.3% of F)
    Basis function eval.    ....      36.785 sec  ( 36.4% of XC)
    Density eval.           ....      24.012 sec  ( 23.8% of XC)
    XC-Functional eval.     ....       6.673 sec  (  6.6% of XC)
    XC-Potential eval.      ....      31.164 sec  ( 30.8% of XC)
Diagonalization             ....       1.068 sec  (  0.2%)
Density matrix formation    ....       0.084 sec  (  0.0%)
Population analysis         ....       0.070 sec  (  0.0%)
Initial guess               ....       0.146 sec  (  0.0%)
Orbital Transformation      ....       0.000 sec  (  0.0%)
Orbital Orthonormalization  ....       0.141 sec  (  0.0%)
DIIS solution               ....       0.350 sec  (  0.1%)
SOSCF solution              ....       0.174 sec  (  0.0%)
Grid generation             ....       5.465 sec  (  0.9%)

------------------------------------------------------------------------------
                              ORCA MP2 CALCULATION
------------------------------------------------------------------------------


----------------------
RI-MP2 ENERGY+GRADIENT
----------------------
Dimension of the basis                    ...  259
Memory devoted to MP2                     ... 1000 MB   
Data format for buffers                   ... DOUBLE
Compression type for matrix containers    ... UNCOMPRESSED
Overall scaling of the MP2 energy         ...   2.700e-01 Eh
Calculating two index integrals           ... done (    0.019 sec)
Cholesky decomposition of the V-matrix    ... done
Cholesky decomposition of V**-1           ... done (    0.033 sec)

-----------------
RI-TRANSFORMATION (AUX index driven)
-----------------

Dimension of the orbital-basis         ... 259
Dimension of the aux-basis             ... 493
Transformation of internal MOs         ...    0-  45
Transformation of internal/external MOs...    0-  45 to   46- 258
Number Format for Storage              ... Double (8 Byte)
Integral mode                          ... Direct

First Phase: integral generation and transformation of MO indices
  Aux angular momentum 0               ... done (    0.600 sec)
  Aux angular momentum 1               ... done (    0.439 sec)
  Aux angular momentum 2               ... done (    0.521 sec)
  Aux angular momentum 3               ... done (    0.312 sec)
  Aux angular momentum 4               ... done (    0.291 sec)
Closing buffer VIJ ( 0.00 GB; CompressionRatio= 1.95)
Closing buffer VIA ( 0.04 GB; CompressionRatio= 1.00)
  Phase 1 completed in     2.306 sec
Second Phase: sorting and transformation of aux index

IJ-Transformation
Memory available                       ... 990 MB 
Max. # MO pairs treated in a batch     ... 46    
# of internal orbitals                 ... 46
# batches for internal orbitals        ... 1
Closing buffer IJV ( 0.00 GB; CompressionRatio= 1.00)
(ij|v) transformation done in     0.150 sec

IA-Transformation
Memory available                       ... 990 MB 
Max. # MO pairs treated in a batch     ... 46    
# of internal orbitals                 ... 46
# batches for internal orbitals        ... 1
Closing buffer IAV ( 0.04 GB; CompressionRatio= 1.00)
(ia|v) transformation done in     0.614 sec

  Phase 2 completed in     0.790 sec
RI-Integral transformation completed in     3.097 sec
Opening buffers                              ... done

Starting loop over batches of integrals:

Operator 0  - window                       ... (  0- 45)x( 46-258)
Operator 0  - Memory available             ...  1000 MB
Operator 0  - Memory needed per MO         ...   1.6 MB
Operator 0  - Number of orbitals per batch ... 46
Operator 0  - Number of batches            ... 1

OPERATOR  0   PASS   0:  MOs     0 ...   45
  Reading integrals       ... ok
  Internal MO   2
  Internal MO   5
  Internal MO   8
  Internal MO  11
  Internal MO  14
  Internal MO  17
  Internal MO  20
  Internal MO  23
  Internal MO  26
  Internal MO  29
  Internal MO  32
  Internal MO  35
  Internal MO  38
  Internal MO  41
  Internal MO  44
Closing buffer GIPV ( 0.04 GB; CompressionRatio= 1.00)
Time spent in pair loops =    65.779 sec

-----------------------------------------------
 RI-MP2 CORRELATION ENERGY:     -0.583049452 Eh
-----------------------------------------------


---------------------
MP2 DENSITY FORMATION
---------------------

Completing the external part of the density      ... done
Storing the unrelaxed density                    ... done

Calculating the xc-kernel                        ... done
Calculating G(D)                                 ... done
Completing the Lagrangian                        ... done
Solving the Z-vector equations                   ... 

------------------------------------------------------------------------------
                           ORCA CP-SCF CALCULATION
------------------------------------------------------------------------------

Input orbitals are from        ... PbMACl3_mp2_md_15.orca.gbw
Input Perturbation             ... PbMACl3_mp2_md_15.orca.pin.tmp
Wavefunction output            ... PbMACl3_mp2_md_15.orca.pout.tmp
Perturbation mode              ... Real perturbation
Solver                         ... DIIS
   MaxDIIS                     ... 20
   Levelshift                  ...    3.000e-01 Eh
Max. number of iterations      ... 128
Convergence tolerance          ... 1.000e-08
Integral handling              ... Direct
COSX GridX                     ... 1
Number of perturbations        ... 1
Number of operators            ... 1
Orbital ranges used for CP-SCF:
 Operator 0:  Orbitals   0... 45  to  46...258
DFT calculation                         ... on
Exchange functional (SCF)               ... B88
Exchange functional (CP-SCF)            ... B88
   X-Alpha parameter    XAlpha (SCF)    ...  0.666667
   X-Alpha parameter    XAlpha (CP-SCF) ...  0.666667
   Becke's b parameter  XBeta (SCF)     ...  0.004200
   Becke's b parameter  XBeta (CP-SCF)  ...  0.004200
Correlation functional (SCF)            ... LYP
Correlation functional (CP-SCF)         ... LYP
 LDA part of GGA corr.  LDAOpt (SCF)    ... VWN-3
 LDA part of GGA corr.  LDAOpt (CP-SCF) ... VWN-3
Hybrid DFT                              ... on
   Exchange mixing (SCF)                ...  0.530
   Exchange mixing (CP-SCF)             ...  0.530
   GGA exch. scaling(SCF)               ...  0.470
   GGA exch. scaling (CP-SCF)           ...  0.470
   GGA corr. scaling (SCF)              ...  0.730
   GGA corr. scaling (CP-SCF)           ...  0.730
The RIJCOSX approximation is active
Variables per vector in CP-SCF ... 9798
Number of vectors sought       ... 1
Calculating the xc-kernel      ... done

Solving the CP-SCF equations by a DIIS algorithm

-----------------
CP-SCF ITERATIONS
-----------------
  Iteration   0: MaxR=  0.082940146
  Iteration   1: MaxR=  0.036658824
  Iteration   2: MaxR=  0.011378283
  Iteration   3: MaxR=  0.005237564
  Iteration   4: MaxR=  0.003407463
  Iteration   5: MaxR=  0.001841462
  Iteration   6: MaxR=  0.000920464
  Iteration   7: MaxR=  0.000328005
  Iteration   8: MaxR=  0.000148292
  Iteration   9: MaxR=  0.000058148
  Iteration  10: MaxR=  0.000023865
  Iteration  11: MaxR=  0.000008932
  Iteration  12: MaxR=  0.000004240
  Iteration  13: MaxR=  0.000001655
  Iteration  14: MaxR=  0.000000647
  Iteration  15: MaxR=  0.000000233
  Iteration  16: MaxR=  0.000000079
  Iteration  17: MaxR=  0.000000030
  Iteration  18: MaxR=  0.000000011
  Iteration  19: MaxR=  0.000000004
                              *** THE CP-SCF HAS CONVERGED *** 
done
Finalizing the relaxed density                   ... done
Transforming P to the AO basis                   ... done
Storing the relaxed density                      ... done

------------------------------------
ENERGY WEIGHTED DENSITY FINALIZATION
------------------------------------

Gathering the parts of the W-matrix              ... done
Forming the Z-density                            ... done
Transforming Z to the AO basis                   ... done
Calculating G(Z)                                 ... done
Finalizing the W-matrix                          ... done
Transforming W to the AO basis and storing       ... done
Entering the RIJONX and RIJCOSX sections
Starting the three-index derivative integrals:
Operator 0  - Memory available             ...  1000 MB
Operator 0  - Memory needed per MO         ...   1.0 MB
Operator 0  - Number of orbitals per batch ... 46
Operator 0  - Number of batches            ... 1

OPERATOR  0   PASS   0:  MOs     0 ...   45

----------------------------------
MP2 DERIVATIVE INTEGRAL GENERATION
----------------------------------


Input Correlated Electron Density   ... PbMACl3_mp2_md_15.orca.pmp2re
Input Energy Weighted Density       ... PbMACl3_mp2_md_15.orca.wmp2.tmp
Input SCF Electron Density          ... PbMACl3_mp2_md_15.orca.scfp.tmp

One-Electron Terms    ...
  ECP gradient                                           ... One-Electron Terms done

-----------------------------------------------------------
MP2 COSX Grid Generation
-----------------------------------------------------------

General Integration Accuracy     IntAcc      ...  4.340
Radial Grid Type                 RadialGrid  ... Gauss-Chebyshev
Angular Grid (max. acc.)         AngularGrid ... Lebedev-302
Angular grid pruning method      GridPruning ... 3 (G Style)
Weight generation scheme         WeightScheme... Becke
Basis function cutoff            BFCut       ...    1.0000e-11
Integration weight cutoff        WCut        ...    1.0000e-14
Grids for H and He will be reduced by one unit

# of grid points (after initial pruning)     ...  57718 (   0.0 sec)
# of grid points (after weights+screening)   ...  54395 (   0.2 sec)
nearest neighbour list constructed           ...    0.0 sec
Grid point re-assignment to atoms done       ...    0.0 sec
Grid point division into batches done        ...    0.3 sec
Reduced shell lists constructed in    1.4 sec

Total number of grid points                  ...    54395
Total number of batches                      ...      856
Average number of points per batch           ...       63
Average number of grid points per atom       ...     4533
Average number of shells per batch           ...    55.05 (54.51%)
Average number of basis functions per batch  ...   145.19 (56.06%)
Average number of large shells per batch     ...    41.70 (75.75%)
Average number of large basis fcns per batch ...   108.23 (74.54%)
Maximum spatial batch extension              ...  47.00, 26.80, 36.77 au
Average spatial batch extension              ...   3.25,  2.96,  3.12 au

Overlap Fitting                  UseSFitting ... on
Two electron COSX terms .... 
Integration Timings:
Total Time                  =   127.0 sec
Basis fcn evaluation        =     0.6 sec
Density evaluation          =     1.5 sec
Integral evaluation         =   121.7 sec
K(P) evaluation             =     1.3 sec
                          .... COSX two electron terms done
COSX two-electron contribution to the gradient
     0:     0.015998     0.054066    -0.007593
     1:    -0.019508    -0.081516     0.123226
     2:     0.199969     0.056074    -0.076874
     3:    -0.094475     0.188007    -0.052614
     4:    -0.055512    -0.126622    -0.095082
     5:     0.082960     0.062276     0.135013
     6:     0.046497    -0.158363    -0.039905
     7:    -0.173852     0.005679     0.026187
     8:    -0.019270     0.035725    -0.001651
     9:     0.047630    -0.059322    -0.019298
    10:     0.001628     0.021660    -0.036472
    11:    -0.032443     0.002240     0.045003
Exchange-correlation gradient    ... done
Dispersion correction            ... 
Entering the calculation of the dispersion correction...

Checking the input atom types...

Done
done

                *********************************************
                * UNRELAXED MP2 DENSITY POPULATION ANALYSIS *
                *********************************************

------------------------------------------------------------------------------
                           ORCA POPULATION ANALYSIS
------------------------------------------------------------------------------
Input electron density              ... PbMACl3_mp2_md_15.orca.pmp2ur
BaseName (.gbw .S,...)              ... PbMACl3_mp2_md_15.orca

                    ********************************
                    * MULLIKEN POPULATION ANALYSIS *
                    ********************************

-----------------------
MULLIKEN ATOMIC CHARGES
-----------------------
   0 C :   -0.224724
   1 N :   -0.281231
   2 H :    0.281317
   3 H :    0.268945
   4 H :    0.290666
   5 H :    0.161517
   6 H :    0.155252
   7 H :    0.173916
   8 Pb:    0.802560
   9 Cl:   -0.525010
  10 Cl:   -0.544925
  11 Cl:   -0.558283
Sum of atomic charges:   -0.0000000

--------------------------------
MULLIKEN REDUCED ORBITAL CHARGES
--------------------------------
  0 C s       :     3.268085  s :     3.268085
      pz      :     0.763428  p :     2.877787
      px      :     1.093294
      py      :     1.021066
      dz2     :     0.018797  d :     0.071805
      dxz     :     0.013248
      dyz     :     0.018109
      dx2y2   :     0.012343
      dxy     :     0.009307
      f0      :     0.001534  f :     0.007047
      f+1     :     0.001222
      f-1     :     0.001588
      f+2     :     0.000775
      f-2     :     0.000746
      f+3     :     0.000840
      f-3     :     0.000341
  1 N s       :     3.400147  s :     3.400147
      pz      :     1.268748  p :     3.819542
      px      :     1.269884
      py      :     1.280910
      dz2     :     0.012537  d :     0.058198
      dxz     :     0.013328
      dyz     :     0.015378
      dx2y2   :     0.010252
      dxy     :     0.006703
      f0      :     0.000720  f :     0.003344
      f+1     :     0.000440
      f-1     :     0.000667
      f+2     :     0.000411
      f-2     :     0.000302
      f+3     :     0.000577
      f-3     :     0.000227
  2 H s       :     0.680519  s :     0.680519
      pz      :     0.009369  p :     0.038164
      px      :     0.020226
      py      :     0.008569
  3 H s       :     0.693836  s :     0.693836
      pz      :     0.008350  p :     0.037220
      px      :     0.010459
      py      :     0.018410
  4 H s       :     0.655219  s :     0.655219
      pz      :     0.026066  p :     0.054115
      px      :     0.008853
      py      :     0.019197
  5 H s       :     0.815941  s :     0.815941
      pz      :     0.010469  p :     0.022542
      px      :     0.006672
      py      :     0.005401
  6 H s       :     0.818917  s :     0.818917
      pz      :     0.003868  p :     0.025831
      px      :     0.005354
      py      :     0.016609
  7 H s       :     0.801990  s :     0.801990
      pz      :     0.003897  p :     0.024094
      px      :     0.015599
      py      :     0.004599
  8 Pbs       :     3.968047  s :     3.968047
      pz      :     2.316886  p :     6.954421
      px      :     2.323183
      py      :     2.314351
      dz2     :     2.027104  d :    10.158630
      dxz     :     2.035790
      dyz     :     2.030689
      dx2y2   :     2.029897
      dxy     :     2.035150
      f0      :     0.017256  f :     0.116342
      f+1     :     0.015975
      f-1     :     0.017469
      f+2     :     0.016727
      f-2     :     0.015722
      f+3     :     0.016853
      f-3     :     0.016340
  9 Cls       :     5.942646  s :     5.942646
      pz      :     3.882694  p :    11.519109
      px      :     3.846942
      py      :     3.789473
      dz2     :     0.010708  d :     0.059479
      dxz     :     0.009768
      dyz     :     0.010513
      dx2y2   :     0.011618
      dxy     :     0.016873
      f0      :     0.000481  f :     0.003776
      f+1     :     0.000477
      f-1     :     0.000499
      f+2     :     0.000418
      f-2     :     0.000573
      f+3     :     0.000676
      f-3     :     0.000651
 10 Cls       :     5.944877  s :     5.944877
      pz      :     3.807057  p :    11.525566
      px      :     3.910125
      py      :     3.808384
      dz2     :     0.015304  d :     0.070239
      dxz     :     0.011215
      dyz     :     0.019748
      dx2y2   :     0.013627
      dxy     :     0.010345
      f0      :     0.000605  f :     0.004244
      f+1     :     0.000447
      f-1     :     0.000822
      f+2     :     0.000744
      f-2     :     0.000522
      f+3     :     0.000535
      f-3     :     0.000569
 11 Cls       :     5.944561  s :     5.944561
      pz      :     3.828397  p :    11.549650
      px      :     3.822429
      py      :     3.898825
      dz2     :     0.015195  d :     0.060362
      dxz     :     0.015632
      dyz     :     0.010471
      dx2y2   :     0.009651
      dxy     :     0.009414
      f0      :     0.000584  f :     0.003709
      f+1     :     0.000778
      f-1     :     0.000490
      f+2     :     0.000542
      f-2     :     0.000496
      f+3     :     0.000413
      f-3     :     0.000405


                     *******************************
                     * LOEWDIN POPULATION ANALYSIS *
                     *******************************

----------------------
LOEWDIN ATOMIC CHARGES
----------------------
   0 C :   -0.265548
   1 N :    0.127959
   2 H :    0.181162
   3 H :    0.183445
   4 H :    0.109545
   5 H :    0.121990
   6 H :    0.119104
   7 H :    0.126328
   8 Pb:   -0.191487
   9 Cl:   -0.181856
  10 Cl:   -0.122199
  11 Cl:   -0.208443

-------------------------------
LOEWDIN REDUCED ORBITAL CHARGES
-------------------------------
  0 C s       :     2.855261  s :     2.855261
      pz      :     0.893894  p :     3.071754
      px      :     1.109355
      py      :     1.068504
      dz2     :     0.097671  d :     0.299600
      dxz     :     0.058808
      dyz     :     0.066569
      dx2y2   :     0.052400
      dxy     :     0.024152
      f0      :     0.009832  f :     0.038933
      f+1     :     0.007126
      f-1     :     0.008836
      f+2     :     0.003032
      f-2     :     0.005523
      f+3     :     0.003271
      f-3     :     0.001312
  1 N s       :     2.965990  s :     2.965990
      pz      :     1.260064  p :     3.714583
      px      :     1.227818
      py      :     1.226702
      dz2     :     0.038807  d :     0.179640
      dxz     :     0.038668
      dyz     :     0.049319
      dx2y2   :     0.030270
      dxy     :     0.022577
      f0      :     0.001751  f :     0.011827
      f+1     :     0.002051
      f-1     :     0.001856
      f+2     :     0.002076
      f-2     :     0.001846
      f+3     :     0.001652
      f-3     :     0.000596
  2 H s       :     0.706786  s :     0.706786
      pz      :     0.026920  p :     0.112052
      px      :     0.059870
      py      :     0.025262
  3 H s       :     0.706578  s :     0.706578
      pz      :     0.024743  p :     0.109977
      px      :     0.030983
      py      :     0.054252
  4 H s       :     0.712149  s :     0.712149
      pz      :     0.085929  p :     0.178306
      px      :     0.026397
      py      :     0.065980
  5 H s       :     0.813011  s :     0.813011
      pz      :     0.027551  p :     0.064999
      px      :     0.020255
      py      :     0.017194
  6 H s       :     0.809240  s :     0.809240
      pz      :     0.011827  p :     0.071656
      px      :     0.015447
      py      :     0.044382
  7 H s       :     0.804377  s :     0.804377
      pz      :     0.011436  p :     0.069295
      px      :     0.043863
      py      :     0.013996
  8 Pbs       :     3.685386  s :     3.685386
      pz      :     2.484780  p :     7.442951
      px      :     2.456454
      py      :     2.501717
      dz2     :     2.134469  d :    10.762729
      dxz     :     2.166832
      dyz     :     2.165547
      dx2y2   :     2.135375
      dxy     :     2.160506
      f0      :     0.043392  f :     0.300421
      f+1     :     0.047405
      f-1     :     0.039897
      f+2     :     0.052214
      f-2     :     0.034384
      f+3     :     0.042171
      f-3     :     0.040958
  9 Cls       :     5.724017  s :     5.724017
      pz      :     3.823851  p :    11.368639
      px      :     3.796494
      py      :     3.748295
      dz2     :     0.016047  d :     0.083598
      dxz     :     0.010631
      dyz     :     0.011078
      dx2y2   :     0.010832
      dxy     :     0.035009
      f0      :     0.000600  f :     0.005602
      f+1     :     0.000712
      f-1     :     0.000739
      f+2     :     0.000415
      f-2     :     0.000781
      f+3     :     0.001227
      f-3     :     0.001129
 10 Cls       :     5.691214  s :     5.691214
      pz      :     3.725025  p :    11.313480
      px      :     3.847879
      py      :     3.740576
      dz2     :     0.017468  d :     0.110299
      dxz     :     0.011370
      dyz     :     0.042461
      dx2y2   :     0.025925
      dxy     :     0.013075
      f0      :     0.001080  f :     0.007207
      f+1     :     0.000454
      f-1     :     0.001444
      f+2     :     0.001829
      f-2     :     0.000731
      f+3     :     0.000693
      f-3     :     0.000976
 11 Cls       :     5.728814  s :     5.728814
      pz      :     3.785160  p :    11.385805
      px      :     3.772218
      py      :     3.828427
      dz2     :     0.027633  d :     0.088238
      dxz     :     0.029272
      dyz     :     0.010765
      dx2y2   :     0.010630
      dxy     :     0.009940
      f0      :     0.000827  f :     0.005585
      f+1     :     0.002014
      f-1     :     0.000544
      f+2     :     0.000804
      f-2     :     0.000534
      f+3     :     0.000444
      f-3     :     0.000418


                      *****************************
                      * MAYER POPULATION ANALYSIS *
                      *****************************

  NA   - Mulliken gross atomic population
  ZA   - Total nuclear charge
  QA   - Mulliken gross atomic charge
  VA   - Mayer's total valence
  BVA  - Mayer's bonded valence
  FA   - Mayer's free valence

  ATOM       NA         ZA         QA         VA         BVA        FA
  0 C      6.2247     6.0000    -0.2247     3.8331     3.7189     0.1142
  1 N      7.2812     7.0000    -0.2812     3.4873     3.3515     0.1357
  2 H      0.7187     1.0000     0.2813     0.9337     0.9167     0.0171
  3 H      0.7311     1.0000     0.2689     0.9334     0.9158     0.0176
  4 H      0.7093     1.0000     0.2907     0.9979     0.9781     0.0198
  5 H      0.8385     1.0000     0.1615     0.9683     0.9501     0.0182
  6 H      0.8447     1.0000     0.1553     0.9899     0.9698     0.0202
  7 H      0.8261     1.0000     0.1739     0.9754     0.9579     0.0175
  8 Pb    21.1974    22.0000     0.8026     2.2214     1.8371     0.3842
  9 Cl    17.5250    17.0000    -0.5250     1.0436     0.7797     0.2638
 10 Cl    17.5449    17.0000    -0.5449     0.9841     0.7226     0.2615
 11 Cl    17.5583    17.0000    -0.5583     0.9627     0.6981     0.2646

  Mayer bond orders larger than 0.1
B(  0-C ,  1-N ) :   0.8417 B(  0-C ,  5-H ) :   0.9503 B(  0-C ,  6-H ) :   0.9420 
B(  0-C ,  7-H ) :   0.9475 B(  1-N ,  2-H ) :   0.8899 B(  1-N ,  3-H ) :   0.8936 
B(  1-N ,  4-H ) :   0.7574 B(  4-H , 10-Cl) :   0.2323 B(  8-Pb,  9-Cl) :   0.7573 
B(  8-Pb, 10-Cl) :   0.4646 B(  8-Pb, 11-Cl) :   0.6087 


                *******************************************
                * RELAXED MP2 DENSITY POPULATION ANALYSIS *
                *******************************************

------------------------------------------------------------------------------
                           ORCA POPULATION ANALYSIS
------------------------------------------------------------------------------
Input electron density              ... PbMACl3_mp2_md_15.orca.pmp2re
BaseName (.gbw .S,...)              ... PbMACl3_mp2_md_15.orca

                    ********************************
                    * MULLIKEN POPULATION ANALYSIS *
                    ********************************

-----------------------
MULLIKEN ATOMIC CHARGES
-----------------------
   0 C :   -0.244430
   1 N :   -0.281834
   2 H :    0.281549
   3 H :    0.269386
   4 H :    0.285244
   5 H :    0.163979
   6 H :    0.159497
   7 H :    0.176953
   8 Pb:    0.742143
   9 Cl:   -0.498538
  10 Cl:   -0.521229
  11 Cl:   -0.532720
Sum of atomic charges:   -0.0000000

--------------------------------
MULLIKEN REDUCED ORBITAL CHARGES
--------------------------------
  0 C s       :     3.272774  s :     3.272774
      pz      :     0.770682  p :     2.897169
      px      :     1.097297
      py      :     1.029190
      dz2     :     0.017729  d :     0.067603
      dxz     :     0.012688
      dyz     :     0.017126
      dx2y2   :     0.011142
      dxy     :     0.008919
      f0      :     0.001513  f :     0.006883
      f+1     :     0.001194
      f-1     :     0.001535
      f+2     :     0.000764
      f-2     :     0.000727
      f+3     :     0.000817
      f-3     :     0.000334
  1 N s       :     3.401916  s :     3.401916
      pz      :     1.266102  p :     3.819581
      px      :     1.271194
      py      :     1.282285
      dz2     :     0.012144  d :     0.057046
      dxz     :     0.013376
      dyz     :     0.015320
      dx2y2   :     0.009870
      dxy     :     0.006337
      f0      :     0.000706  f :     0.003290
      f+1     :     0.000437
      f-1     :     0.000651
      f+2     :     0.000409
      f-2     :     0.000302
      f+3     :     0.000561
      f-3     :     0.000224
  2 H s       :     0.680737  s :     0.680737
      pz      :     0.009323  p :     0.037714
      px      :     0.019781
      py      :     0.008610
  3 H s       :     0.693830  s :     0.693830
      pz      :     0.008355  p :     0.036784
      px      :     0.010408
      py      :     0.018021
  4 H s       :     0.661141  s :     0.661141
      pz      :     0.025693  p :     0.053616
      px      :     0.008896
      py      :     0.019026
  5 H s       :     0.813819  s :     0.813819
      pz      :     0.010165  p :     0.022203
      px      :     0.006611
      py      :     0.005427
  6 H s       :     0.814991  s :     0.814991
      pz      :     0.003961  p :     0.025512
      px      :     0.005393
      py      :     0.016158
  7 H s       :     0.799372  s :     0.799372
      pz      :     0.003960  p :     0.023675
      px      :     0.015032
      py      :     0.004683
  8 Pbs       :     3.970474  s :     3.970474
      pz      :     2.338656  p :     7.016358
      px      :     2.340229
      py      :     2.337473
      dz2     :     2.026356  d :    10.157204
      dxz     :     2.034994
      dyz     :     2.031481
      dx2y2   :     2.029884
      dxy     :     2.034489
      f0      :     0.016882  f :     0.113822
      f+1     :     0.015451
      f-1     :     0.017203
      f+2     :     0.016339
      f-2     :     0.015493
      f+3     :     0.016505
      f-3     :     0.015949
  9 Cls       :     5.943511  s :     5.943511
      pz      :     3.874530  p :    11.491745
      px      :     3.835689
      py      :     3.781525
      dz2     :     0.010745  d :     0.059497
      dxz     :     0.009770
      dyz     :     0.010436
      dx2y2   :     0.011576
      dxy     :     0.016970
      f0      :     0.000483  f :     0.003785
      f+1     :     0.000477
      f-1     :     0.000500
      f+2     :     0.000419
      f-2     :     0.000575
      f+3     :     0.000676
      f-3     :     0.000654
 10 Cls       :     5.945124  s :     5.945124
      pz      :     3.797358  p :    11.500938
      px      :     3.903622
      py      :     3.799957
      dz2     :     0.015336  d :     0.070900
      dxz     :     0.011202
      dyz     :     0.020110
      dx2y2   :     0.013806
      dxy     :     0.010447
      f0      :     0.000606  f :     0.004267
      f+1     :     0.000448
      f-1     :     0.000837
      f+2     :     0.000743
      f-2     :     0.000525
      f+3     :     0.000538
      f-3     :     0.000570
 11 Cls       :     5.945353  s :     5.945353
      pz      :     3.819367  p :    11.523121
      px      :     3.812797
      py      :     3.890957
      dz2     :     0.015385  d :     0.060527
      dxz     :     0.015605
      dyz     :     0.010484
      dx2y2   :     0.009598
      dxy     :     0.009456
      f0      :     0.000588  f :     0.003719
      f+1     :     0.000774
      f-1     :     0.000495
      f+2     :     0.000542
      f-2     :     0.000499
      f+3     :     0.000414
      f-3     :     0.000406


                     *******************************
                     * LOEWDIN POPULATION ANALYSIS *
                     *******************************

----------------------
LOEWDIN ATOMIC CHARGES
----------------------
   0 C :   -0.275468
   1 N :    0.124537
   2 H :    0.181597
   3 H :    0.184012
   4 H :    0.108258
   5 H :    0.123706
   6 H :    0.121104
   7 H :    0.127729
   8 Pb:   -0.227494
   9 Cl:   -0.164995
  10 Cl:   -0.110269
  11 Cl:   -0.192719

-------------------------------
LOEWDIN REDUCED ORBITAL CHARGES
-------------------------------
  0 C s       :     2.857016  s :     2.857016
      pz      :     0.898509  p :     3.085237
      px      :     1.112697
      py      :     1.074031
      dz2     :     0.096410  d :     0.294571
      dxz     :     0.058117
      dyz     :     0.065259
      dx2y2   :     0.051139
      dxy     :     0.023645
      f0      :     0.009769  f :     0.038644
      f+1     :     0.007087
      f-1     :     0.008741
      f+2     :     0.003008
      f-2     :     0.005495
      f+3     :     0.003241
      f-3     :     0.001304
  1 N s       :     2.967265  s :     2.967265
      pz      :     1.258433  p :     3.716795
      px      :     1.230141
      py      :     1.228221
      dz2     :     0.038694  d :     0.179538
      dxz     :     0.038888
      dyz     :     0.049614
      dx2y2   :     0.029981
      dxy     :     0.022361
      f0      :     0.001753  f :     0.011864
      f+1     :     0.002060
      f-1     :     0.001876
      f+2     :     0.002076
      f-2     :     0.001858
      f+3     :     0.001648
      f-3     :     0.000593
  2 H s       :     0.706582  s :     0.706582
      pz      :     0.026917  p :     0.111822
      px      :     0.059583
      py      :     0.025321
  3 H s       :     0.706184  s :     0.706184
      pz      :     0.024778  p :     0.109804
      px      :     0.030964
      py      :     0.054061
  4 H s       :     0.713649  s :     0.713649
      pz      :     0.085633  p :     0.178092
      px      :     0.026462
      py      :     0.065997
  5 H s       :     0.811166  s :     0.811166
      pz      :     0.027433  p :     0.065128
      px      :     0.020308
      py      :     0.017387
  6 H s       :     0.806837  s :     0.806837
      pz      :     0.012032  p :     0.072059
      px      :     0.015598
      py      :     0.044429
  7 H s       :     0.802897  s :     0.802897
      pz      :     0.011628  p :     0.069374
      px      :     0.043515
      py      :     0.014232
  8 Pbs       :     3.691075  s :     3.691075
      pz      :     2.499903  p :     7.485188
      px      :     2.468285
      py      :     2.517000
      dz2     :     2.132721  d :    10.754884
      dxz     :     2.164349
      dyz     :     2.164867
      dx2y2   :     2.134450
      dxy     :     2.158496
      f0      :     0.042914  f :     0.296347
      f+1     :     0.046638
      f-1     :     0.039431
      f+2     :     0.051507
      f-2     :     0.033785
      f+3     :     0.041661
      f-3     :     0.040410
  9 Cls       :     5.727115  s :     5.727115
      pz      :     3.817317  p :    11.347531
      px      :     3.787417
      py      :     3.742797
      dz2     :     0.016222  d :     0.084660
      dxz     :     0.010754
      dyz     :     0.011152
      dx2y2   :     0.010915
      dxy     :     0.035617
      f0      :     0.000610  f :     0.005689
      f+1     :     0.000717
      f-1     :     0.000749
      f+2     :     0.000417
      f-2     :     0.000798
      f+3     :     0.001256
      f-3     :     0.001142
 10 Cls       :     5.694366  s :     5.694366
      pz      :     3.718550  p :    11.296683
      px      :     3.843049
      py      :     3.735084
      dz2     :     0.017638  d :     0.111914
      dxz     :     0.011424
      dyz     :     0.043325
      dx2y2   :     0.026352
      dxy     :     0.013175
      f0      :     0.001091  f :     0.007306
      f+1     :     0.000456
      f-1     :     0.001474
      f+2     :     0.001857
      f-2     :     0.000739
      f+3     :     0.000697
      f-3     :     0.000992
 11 Cls       :     5.731737  s :     5.731737
      pz      :     3.778653  p :    11.366133
      px      :     3.764881
      py      :     3.822598
      dz2     :     0.027856  d :     0.089195
      dxz     :     0.029758
      dyz     :     0.010878
      dx2y2   :     0.010679
      dxy     :     0.010024
      f0      :     0.000832  f :     0.005654
      f+1     :     0.002044
      f-1     :     0.000551
      f+2     :     0.000819
      f-2     :     0.000543
      f+3     :     0.000446
      f-3     :     0.000420


                      *****************************
                      * MAYER POPULATION ANALYSIS *
                      *****************************

  NA   - Mulliken gross atomic population
  ZA   - Total nuclear charge
  QA   - Mulliken gross atomic charge
  VA   - Mayer's total valence
  BVA  - Mayer's bonded valence
  FA   - Mayer's free valence

  ATOM       NA         ZA         QA         VA         BVA        FA
  0 C      6.2444     6.0000    -0.2444     3.8326     3.7187     0.1139
  1 N      7.2818     7.0000    -0.2818     3.4908     3.3554     0.1354
  2 H      0.7185     1.0000     0.2815     0.9343     0.9173     0.0170
  3 H      0.7306     1.0000     0.2694     0.9329     0.9154     0.0175
  4 H      0.7148     1.0000     0.2852     1.0039     0.9842     0.0197
  5 H      0.8360     1.0000     0.1640     0.9676     0.9494     0.0182
  6 H      0.8405     1.0000     0.1595     0.9938     0.9738     0.0200
  7 H      0.8230     1.0000     0.1770     0.9756     0.9582     0.0175
  8 Pb    21.2579    22.0000     0.7421     2.3204     1.9417     0.3788
  9 Cl    17.4985    17.0000    -0.4985     1.0917     0.8298     0.2619
 10 Cl    17.5212    17.0000    -0.5212     1.0311     0.7709     0.2603
 11 Cl    17.5327    17.0000    -0.5327     1.0109     0.7479     0.2630

  Mayer bond orders larger than 0.1
B(  0-C ,  1-N ) :   0.8497 B(  0-C ,  5-H ) :   0.9472 B(  0-C ,  6-H ) :   0.9375 
B(  0-C ,  7-H ) :   0.9448 B(  1-N ,  2-H ) :   0.8884 B(  1-N ,  3-H ) :   0.8916 
B(  1-N ,  4-H ) :   0.7514 B(  4-H , 10-Cl) :   0.2426 B(  8-Pb,  9-Cl) :   0.7999 
B(  8-Pb, 10-Cl) :   0.4880 B(  8-Pb, 11-Cl) :   0.6426 


-------
TIMINGS
-------

Total time                :  784.900 sec
Integral trafo            :    3.111 sec (  0.4%)
I/O of integrals          :    0.431 sec (  0.1%)
K(i,j) Operators          :    9.866 sec (  1.3%)
T(i,j) pair energies      :    1.999 sec (  0.3%)
V-calculation             :    0.019 sec (  0.0%)
V**(-1/2)                 :    0.033 sec (  0.0%)
Gamma(ia|P)               :    9.187 sec (  1.2%)
Gamma-Trafo               :    1.448 sec (  0.2%)
D(virtual)                :    4.024 sec (  0.5%)
D(internal)               :    6.263 sec (  0.8%)
W(virtual)                :    7.961 sec (  1.0%)
W(internal)               :   14.586 sec (  1.9%)
L(virtual)                :    9.172 sec (  1.2%)
L(internal)               :    0.548 sec (  0.1%)
G(D)                      :   19.150 sec (  2.4%)
G(Z)                      :   20.337 sec (  2.6%)
Z-Vector Solution         :  524.881 sec ( 66.9%)
Z-Vector Solution         :  524.881 sec ( 66.9%)
3-Index Derivative 
+ Separable RIJ part      :    6.342 sec (  0.8%)
2-Index Derivative 
+ Separable RIJ part      :    0.044 sec (  0.0%)
Separable Gradient (COSX) :  142.515 sec ( 18.2%)


---------------------------------------
MP2 TOTAL ENERGY:    -1669.525062628 Eh
---------------------------------------

The final MP2 gradient
  0:  -0.02103470   0.00280904   0.01186051
  1:   0.01003915  -0.02925339  -0.02960529
  2:  -0.03224487   0.00642717  -0.00507098
  3:   0.01923827  -0.01649491  -0.00230517
  4:   0.00822675   0.01173509   0.02343274
  5:  -0.00016039  -0.00309494   0.00721703
  6:   0.00332524   0.00353419  -0.02049098
  7:   0.00923634   0.00252108  -0.00448391
  8:   0.02713888   0.05147952   0.01339631
  9:  -0.03003974   0.02272601   0.00224743
 10:  -0.01249213  -0.04886730   0.04561803
 11:   0.01842372  -0.00366111  -0.04179777

-----------------------------------
NORM OF THE MP2 GRADIENT:  0.131395
-----------------------------------

Entering the calculation of the dispersion correction...

Checking the input atom types...

Done


-------------------------------------------------------------------------------
                          DFT DISPERSION CORRECTION                            
                                                                               
                                DFTD3 V2.1  Rev 6                               
                          USING Becke-Johnson damping                          
-------------------------------------------------------------------------------
The B2PLYP functional is recognized
Active option DFTDOPT                   ...         4   

molecular C6(AA) [au] = 4866.415090 


            DFT-D V3
 parameters
 s6 scaling factor         :     0.6400 
 a1 scaling factor         :     0.3065 
 s8 scaling factor         :     0.9147 
 a2 scaling factor         :     5.0570 
 ad hoc parameters k1-k3   :    16.0000     1.3333    -4.0000 

 Edisp/kcal,au: -8.257842386617  -0.013159708095 
 E6   /kcal   :  -3.757652123 
 E8   /kcal   :  -4.500190264 
 % E8         :  54.495957339 

-------------------------   ----------------
Dispersion correction           -0.013159708
-------------------------   ----------------


-------------------------   --------------------
FINAL SINGLE POINT ENERGY     -1669.538222335780
-------------------------   --------------------


                            ***************************************
                            *     ORCA property calculations      *
                            ***************************************


  WARNING: The energy has been calculated at the MP2 level but the densities
           used in the property calculations are still SCF densities
           MP2 response densities have not been calculated 
           use %mp2 Density relaxed end
           or  %mp2 Density unrelaxed end

                                    ---------------------
                                    Active property flags
                                    ---------------------
   (+) Dipole Moment


------------------------------------------------------------------------------
                       ORCA ELECTRIC PROPERTIES CALCULATION
------------------------------------------------------------------------------

Dipole Moment Calculation                       ... on
Quadrupole Moment Calculation                   ... off
Polarizability Calculation                      ... off
GBWName                                         ... PbMACl3_mp2_md_15.orca.gbw
Electron density file                           ... PbMACl3_mp2_md_15.orca.scfp.tmp

-------------
DIPOLE MOMENT
-------------
                                X             Y             Z
Electronic contribution:    -15.95494     -67.83455     -36.68769
Nuclear contribution   :     16.13383      72.57136      37.86464
                        -----------------------------------------
Total Dipole Moment    :      0.17889       4.73681       1.17695
                        -----------------------------------------
Magnitude (a.u.)       :      4.88412
Magnitude (Debye)      :     12.41444


                         *** MP2 UNRELAXED DENSITY ***

------------------------------------------------------------------------------
                       ORCA ELECTRIC PROPERTIES CALCULATION
------------------------------------------------------------------------------

Dipole Moment Calculation                       ... on
Quadrupole Moment Calculation                   ... off
Polarizability Calculation                      ... off
GBWName                                         ... PbMACl3_mp2_md_15.orca.gbw
Electron density file                           ... PbMACl3_mp2_md_15.orca.pmp2ur

-------------
DIPOLE MOMENT
-------------
                                X             Y             Z
Electronic contribution:    -15.95337     -67.84941     -36.69011
Nuclear contribution   :     16.13383      72.57136      37.86464
                        -----------------------------------------
Total Dipole Moment    :      0.18046       4.72196       1.17453
                        -----------------------------------------
Magnitude (a.u.)       :      4.86918
Magnitude (Debye)      :     12.37648


                           *** MP2 RELAXED DENSITY ***

------------------------------------------------------------------------------
                       ORCA ELECTRIC PROPERTIES CALCULATION
------------------------------------------------------------------------------

Dipole Moment Calculation                       ... on
Quadrupole Moment Calculation                   ... off
Polarizability Calculation                      ... off
GBWName                                         ... PbMACl3_mp2_md_15.orca.gbw
Electron density file                           ... PbMACl3_mp2_md_15.orca.pmp2re

-------------
DIPOLE MOMENT
-------------
                                X             Y             Z
Electronic contribution:    -15.96713     -67.92557     -36.71838
Nuclear contribution   :     16.13383      72.57136      37.86464
                        -----------------------------------------
Total Dipole Moment    :      0.16670       4.64579       1.14626
                        -----------------------------------------
Magnitude (a.u.)       :      4.78802
Magnitude (Debye)      :     12.17017


Timings for individual modules:

Sum of individual times         ...     1392.037 sec (=  23.201 min)
GTO integral calculation        ...        8.191 sec (=   0.137 min)   0.6 %
SCF iterations                  ...      597.775 sec (=   9.963 min)  42.9 %
MP2 module                      ...      786.071 sec (=  13.101 min)  56.5 %
                             ****ORCA TERMINATED NORMALLY****
TOTAL RUN TIME: 0 days 0 hours 23 minutes 14 seconds 21 msec
