
                                 *****************
                                 * O   R   C   A *
                                 *****************

           --- An Ab Initio, DFT and Semiempirical electronic structure package ---

                  #######################################################
                  #                        -***-                        #
                  #  Department of molecular theory and spectroscopy    #
                  #              Directorship: Frank Neese              #
                  # Max Planck Institute for Chemical Energy Conversion #
                  #                  D-45470 Muelheim/Ruhr              #
                  #                       Germany                       #
                  #                                                     #
                  #                  All rights reserved                #
                  #                        -***-                        #
                  #######################################################


                         Program Version 3.0.3 - RELEASE   -


 With contributions from (in alphabetic order):
   Ute Becker             : Parallelization
   Dmytro Bykov           : SCF Hessian
   Dmitry Ganyushin       : Spin-Orbit,Spin-Spin,Magnetic field MRCI
   Andreas Hansen         : Spin unrestricted coupled pair/coupled cluster methods
   Dimitrios Liakos       : Extrapolation schemes; parallel MDCI
   Robert Izsak           : Overlap fitted RIJCOSX, COSX-SCS-MP3
   Christian Kollmar      : KDIIS, OOCD, Brueckner-CCSD(T), CCSD density
   Simone Kossmann        : Meta GGA functionals, TD-DFT gradient, OOMP2, MP2 Hessian
   Taras Petrenko         : DFT Hessian,TD-DFT gradient, ASA and ECA modules, normal mode analysis, Resonance Raman, ABS, FL, XAS/XES, NRVS
   Christoph Reimann      : Effective Core Potentials
   Michael Roemelt        : Restricted open shell CIS
   Christoph Riplinger    : Improved optimizer, TS searches, QM/MM, DLPNO-CCSD
   Barbara Sandhoefer     : DKH picture change effects
   Igor Schapiro          : Molecular dynamics
   Kantharuban Sivalingam : CASSCF convergence, NEVPT2
   Boris Wezisla          : Elementary symmetry handling
   Frank Wennmohs         : Technical directorship


 We gratefully acknowledge several colleagues who have allowed us to
 interface, adapt or use parts of their codes:
   Stefan Grimme, W. Hujo, H. Kruse, T. Risthaus : VdW corrections, initial TS optimization,
                                                   DFT functionals, gCP
   Ed Valeev                                     : LibInt (2-el integral package), F12 methods
   Garnet Chan, S. Sharma, R. Olivares           : DMRG
   Ulf Ekstrom                                   : XCFun DFT Library
   Mihaly Kallay                                 : mrcc  (arbitrary order and MRCC methods)
   Andreas Klamt, Michael Diedenhofen            : otool_cosmo (COSMO solvation model)
   Frank Weinhold                                : gennbo (NPA and NBO analysis)
   Christopher J. Cramer and Donald G. Truhlar   : smd solvation model


 Your calculation uses the libint2 library for the computation of 2-el integrals
 For citations please refer to: http://libint.valeyev.net

 This ORCA versions uses:
   CBLAS   interface :  Fast vector & matrix operations
   LAPACKE interface :  Fast linear algebra routines
   SCALAPACK package :  Parallel linear algebra routines


Your calculation utilizes the basis: Ahlrichs-TZV
Cite in your paper:
H - Kr: A. Schaefer, H. Horn and R. Ahlrichs, J. Chem. Phys. 97, 2571 (1992).

The def2-TZV basis will be loaded
Cite in your paper:
 	F. Weigend, R. Ahlrichs, Phys. Chem. Chem. Phys. 2005, 7, 3297.

Your calculation utilizes the atom-pairwise dispersion correction
with the Becke-Johnson damping scheme (D3BJ)
Cite in your paper:
S.Grimme, S.Ehrlich, L.Goerigk, J Comput Chem, (2011), 32, 1456–1465 
S.Grimme, J.Antony, S.Ehrlich and H.Krieg, J.Chem.Phys., 132, (2010), 154104 
   

================================================================================
                                        WARNINGS
                       Please study these warnings very carefully!
================================================================================

WARNING: The RI method has been chosen with no auxiliary basis (AUX or GTOAUX in BASIS block)
        Standard TZV/J expansion basis used (GTOAUX=TZV_J)

Now building the actual basis set
cite the ECPs for Pb [SD(60,MDF)] as follows:
  B. Metz, H. Stoll, M. Dolg, J. Chem. Phys. 113, 2563 (2000).

ECP parameters for Pb [SD(60,MDF)] have been obtained from:
  pseudopotential library of the Stuttgart/Cologne group
  http://www.theochem.uni-stuttgart.de/pseudopotentials/

cite the ECP basis sets for Pb [DEF2-TZVP] as follows:
  F. Weigend, R. Ahlrichs; Phys. Chem. Chem. Phys. 7, 3297(2005).

ECP basis sets for Pb [DEF2-TZVP] have been obtained from:
  Turbomole basis set library
  ftp://ftp.chemie.uni-karlsruhe.de/pub/basen/



INFO   : the flag for use of LIBINT has been found!

================================================================================
                                       INPUT FILE
================================================================================
NAME = PbMACl3_mp2_6.orca
|  1> ! RIJCOSX RI-B2PLYP D3BJ def2-TZVP ECP{def2-TZVP} TIGHTSCF Grid5 FinalGrid6 SlowConv MORead
|  2> %method
|  3>  RunTyp Gradient
|  4>  end
|  5> %maxcore 1000
|  6> %moinp "previous.gbw"
|  7> *xyz 0 1
|  8> C 2.905719 3.576013 2.873338
|  9> N 2.134625 2.614408 2.046990
| 10> H 3.548796 3.021424 3.560517
| 11> H 2.209179 4.197444 3.440826
| 12> H 3.515705 4.204875 2.220874
| 13> H 1.516852 1.975028 2.601630
| 14> H 2.717740 1.973704 1.464858
| 15> H 1.486857 3.059076 1.361735
| 16> Pb 1.027263 0.131547 0.209487
| 17> Cl 0.729118 0.268387 0.089874
| 18> Cl -0.152002 2.735046 -0.108798
| 19> Cl 0.501220 0.320768 2.851419
| 20> *
| 21> 
| 22>                          ****END OF INPUT****
================================================================================

                     *******************************
                     * Energy+Gradient Calculation *
                     *******************************

---------------------------------
CARTESIAN COORDINATES (ANGSTROEM)
---------------------------------
  C      2.905719    3.576013    2.873338
  N      2.134625    2.614408    2.046990
  H      3.548796    3.021424    3.560517
  H      2.209179    4.197444    3.440826
  H      3.515705    4.204875    2.220874
  H      1.516852    1.975028    2.601630
  H      2.717740    1.973704    1.464858
  H      1.486857    3.059076    1.361735
  Pb     1.027263    0.131547    0.209487
  Cl     0.729118    0.268387    0.089874
  Cl    -0.152002    2.735046   -0.108798
  Cl     0.501220    0.320768    2.851419

----------------------------
CARTESIAN COORDINATES (A.U.)
----------------------------
  NO LB      ZA    FRAG    MASS        X           Y           Z
   0 C     6.0000    0    12.011          5.491013132131525          6.757685221342137          5.429821910189021
   1 N     7.0000    0    14.007          4.033856648621652          4.940515122332791          3.868250498875463
   2 H     1.0000    0     1.008          6.706252545155202          5.709663894456884          6.728402025170893
   3 H     1.0000    0     1.008          4.174743290810016          7.932019622470954          6.502218814475724
   4 H     1.0000    0     1.008          6.643719617657614          7.946062177372124          4.196843637946225
   5 H     1.0000    0     1.008          2.866434865690719          3.732262026826222          4.916368201793546
   6 H     1.0000    0     1.008          5.135784303203143          3.729760029424910          2.768180445083617
   7 H     1.0000    0     1.008          2.809752530303751          5.780815862851287          2.573306216975256
   8 Pb   22.0000*   0   207.200  1.941245737510347  0.248587803738939  0.395873058616761
   9 Cl   17.0000    0    35.453          1.377833339312395          0.507177927904723          0.169837246560039
  10 Cl   17.0000    0    35.453         -0.287242151808298          5.168487903676784         -0.205598423918364
  11 Cl   17.0000    0    35.453          0.947168532844010          0.606163672525652          5.388401003059601
* core charge reduced due to ECP

--------------------------------
INTERNAL COORDINATES (ANGSTROEM)
--------------------------------
 C      0   0   0   0.000000     0.000     0.000
 N      1   0   0   1.483955     0.000     0.000
 H      1   2   0   1.092397   109.099     0.000
 H      1   2   3   1.092423   109.061   240.173
 H      1   2   3   1.092364   109.305   120.114
 H      2   1   3   1.047891   114.015    60.210
 H      2   1   3   1.043744   114.712   299.789
 H      2   1   3   1.042549   114.361   179.707
 Pb     7   2   1   2.797715   108.474   174.788
 Cl     9   7   2   0.349175   114.305    40.534
 Cl     8   2   1   2.225606   146.070   188.677
 Cl     6   2   1   1.957161   152.774   203.097

---------------------------
INTERNAL COORDINATES (A.U.)
---------------------------
 C      0   0   0   0.000000     0.000     0.000
 N      1   0   0   2.804268     0.000     0.000
 H      1   2   0   2.064332   109.099     0.000
 H      1   2   3   2.064379   109.061   240.173
 H      1   2   3   2.064269   109.305   120.114
 H      2   1   3   1.980227   114.015    60.210
 H      2   1   3   1.972391   114.712   299.789
 H      2   1   3   1.970131   114.361   179.707
 Pb     7   2   1   5.286916   108.474   174.788
 Cl     9   7   2   0.659844   114.305    40.534
 Cl     8   2   1   4.205786   146.070   188.677
 Cl     6   2   1   3.698498   152.774   203.097

---------------------
BASIS SET INFORMATION
---------------------
There are 5 groups of distinct atoms

 Group   1 Type C   : 11s6p2d1f contracted to 5s3p2d1f pattern {62111/411/11/1}
 Group   2 Type N   : 11s6p2d1f contracted to 5s3p2d1f pattern {62111/411/11/1}
 Group   3 Type H   : 5s1p contracted to 3s1p pattern {311/1}
 Group   4 Type Pb  : 10s9p8d2f contracted to 6s5p3d2f pattern {421111/33111/611/11}
 Group   5 Type Cl  : 14s9p3d1f contracted to 5s5p2d1f pattern {73211/51111/21/1}

Atom   0C    basis set group =>   1
Atom   1N    basis set group =>   2
Atom   2H    basis set group =>   3
Atom   3H    basis set group =>   3
Atom   4H    basis set group =>   3
Atom   5H    basis set group =>   3
Atom   6H    basis set group =>   3
Atom   7H    basis set group =>   3
Atom   8Pb   basis set group =>   4
Atom   9Cl   basis set group =>   5
Atom  10Cl   basis set group =>   5
Atom  11Cl   basis set group =>   5
-------------------------------
AUXILIARY BASIS SET INFORMATION
-------------------------------
There are 5 groups of distinct atoms

 Group   1 Type C   : 12s5p4d2f1g contracted to 6s4p3d1f1g pattern {711111/2111/211/2/1}
 Group   2 Type N   : 12s5p4d2f1g contracted to 6s4p3d1f1g pattern {711111/2111/211/2/1}
 Group   3 Type H   : 5s2p1d contracted to 3s1p1d pattern {311/2/1}
 Group   4 Type Pb  : 31s12p8d6f3g contracted to 31s12p8d6f3g pattern {1111111111111111111111111111111/111111111111/11111111/111111/111}
 Group   5 Type Cl  : 14s5p5d2f1g contracted to 8s4p3d1f1g pattern {71111111/2111/311/2/1}

Atom   0C    basis set group =>   1
Atom   1N    basis set group =>   2
Atom   2H    basis set group =>   3
Atom   3H    basis set group =>   3
Atom   4H    basis set group =>   3
Atom   5H    basis set group =>   3
Atom   6H    basis set group =>   3
Atom   7H    basis set group =>   3
Atom   8Pb   basis set group =>   4
Atom   9Cl   basis set group =>   5
Atom  10Cl   basis set group =>   5
Atom  11Cl   basis set group =>   5

-------------------------
ECP PARAMETER INFORMATION
-------------------------

 Group 1, Type Pb ECP SD(60,MDF) (replacing 60 core electrons, lmax=5)

Atom   8Pb   ECP group =>   1


------------------------------------------------------------------------------
                           ORCA GTO INTEGRAL CALCULATION
                           -- RI-GTO INTEGRALS CHOSEN --
------------------------------------------------------------------------------

                         BASIS SET STATISTICS AND STARTUP INFO

Gaussian basis set:
 # of primitive gaussian shells          ...  186
 # of primitive gaussian functions       ...  420
 # of contracted shells                  ...  101
 # of contracted basis functions         ...  259
 Highest angular momentum                ...    3
 Maximum contraction depth               ...    7
Auxiliary gaussian basis set:
 # of primitive gaussian shells          ...  237
 # of primitive gaussian functions       ...  643
 # of contracted shells                  ...  171
 # of contracted aux-basis functions     ...  493
 Highest angular momentum                ...    4
 Maximum contraction depth               ...    7
Ratio of auxiliary to basis functions    ...  1.90
Integral package used                  ... LIBINT
 One Electron integrals                  
   ECP integrals                         ... done
 Ordering auxiliary basis shells         ... done
 Integral threshhold             Thresh  ...  2.500e-11
 Primitive cut-off               TCut    ...  2.500e-12
 Pre-screening matrix                    ... done
 Shell pair data                         ... 
 Ordering of the shell pairs             ... done (   0.001 sec) 4496 of 5151 pairs
 Determination of significant pairs      ... done (   0.000 sec)
 Creation of shell pair data             ... done (   0.001 sec)
 Storage of shell pair data              ... done (   0.001 sec)
 Shell pair data done in (   0.003 sec)
 Computing two index integrals           ... done
 Cholesky decomposition of the V-matrix  ... done


Timings:
 Total evaluation time                   ...   1.055 sec (  0.018 min)
 One electron matrix time                ...   0.628 sec (  0.010 min) = 59.5%
 Schwartz matrix evaluation time         ...   0.264 sec (  0.004 min) = 25.1%
 Two index repulsion integral time       ...   0.009 sec (  0.000 min) =  0.8%
 Cholesky decomposition of V             ...   0.120 sec (  0.002 min) = 11.4%
 Three index repulsion integral time     ...   0.000 sec (  0.000 min) =  0.0%

-------------------------------------------------------------------------------
                                 ORCA SCF
-------------------------------------------------------------------------------

------------
SCF SETTINGS
------------
Hamiltonian:
 Density Functional     Method          .... DFT(GTOs)
 Exchange Functional    Exchange        .... B88
   X-Alpha parameter    XAlpha          ....  0.666667
   Becke's b parameter  XBeta           ....  0.004200
 Correlation Functional Correlation     .... LYP
 LDA part of GGA corr.  LDAOpt          .... VWN-3
 Gradients option       PostSCFGGA      .... off
 Hybrid DFT is turned on
   Fraction HF Exchange ScalHFX         ....  0.530000
   Scaling of DF-GGA-X  ScalDFX         ....  0.470000
   Scaling of DF-GGA-C  ScalDFC         ....  0.730000
   Scaling of DF-LDA-C  ScalLDAC        ....  0.730000
   Perturbative correction              ....  0.270000
 RI-approximation to the Coulomb term is turned on
   Number of auxiliary basis functions  .... 493
   RIJ-COSX (HFX calculated with COS-X)).... on


General Settings:
 Integral files         IntName         .... PbMACl3_mp2_6.orca
 Hartree-Fock type      HFTyp           .... RHF
 Total Charge           Charge          ....    0
 Multiplicity           Mult            ....    1
 Number of Electrons    NEL             ....   92
 Basis Dimension        Dim             ....  259
 Nuclear Repulsion      ENuc            ....   1109.8831324015 Eh

Convergence Acceleration:
 DIIS                   CNVDIIS         .... on
   Start iteration      DIISMaxIt       ....     0
   Startup error        DIISStart       ....  0.200000
   # of expansion vecs  DIISMaxEq       ....     5
   Bias factor          DIISBfac        ....   1.050
   Max. coefficient     DIISMaxC        ....  10.000
 Newton-Raphson         CNVNR           .... off
 SOSCF                  CNVSOSCF        .... on
   Start iteration      SOSCFMaxIt      ....   150
   Startup grad/error   SOSCFStart      ....  0.001000
 Level Shifting         CNVShift        .... on
   Level shift para.    LevelShift      ....    0.2500
   Turn off err/grad.   ShiftErr        ....    0.0000
 Zerner damping         CNVZerner       .... off
 Static damping         CNVDamp         .... on
   Fraction old density DampFac         ....    0.8500
   Max. Damping (<1)    DampMax         ....    0.9800
   Min. Damping (>=0)   DampMin         ....    0.0000
   Turn off err/grad.   DampErr         ....    0.0300
 Fernandez-Rico         CNVRico         .... off

SCF Procedure:
 Maximum # iterations   MaxIter         ....   125
 SCF integral mode      SCFMode         .... Direct
   Integral package                     .... LIBINT
 Reset frequeny         DirectResetFreq ....    20
 Integral Threshold     Thresh          ....  2.500e-11 Eh
 Primitive CutOff       TCut            ....  2.500e-12 Eh

Convergence Tolerance:
 Convergence Check Mode ConvCheckMode   .... Total+1el-Energy
 Energy Change          TolE            ....  1.000e-08 Eh
 1-El. energy change                    ....  1.000e-05 Eh
 Orbital Gradient       TolG            ....  1.000e-05
 Orbital Rotation angle TolX            ....  1.000e-05
 DIIS Error             TolErr          ....  5.000e-07


Diagonalization of the overlap matrix:
Smallest eigenvalue                        ... 5.643e-05
Time for diagonalization                   ...    0.235 sec
Threshold for overlap eigenvalues          ... 1.000e-08
Number of eigenvalues below threshold      ... 0
Time for construction of square roots      ...    0.009 sec
Total time needed                          ...    0.244 sec

---------------------
INITIAL GUESS: MOREAD
---------------------
Guess MOs are being read from file: previous.gbw
Input Geometry matches current geometry (good)
Input basis set matches current basis set (good)
MOs were renormalized
MOs were reorthogonalized (Schmidt)
                      ------------------
                      INITIAL GUESS DONE (   0.2 sec)
                      ------------------
-------------------
DFT GRID GENERATION
-------------------

General Integration Accuracy     IntAcc      ...  5.010
Radial Grid Type                 RadialGrid  ... Gauss-Chebyshev
Angular Grid (max. acc.)         AngularGrid ... Lebedev-434
Angular grid pruning method      GridPruning ... 3 (G Style)
Weight generation scheme         WeightScheme... Becke
Basis function cutoff            BFCut       ...    1.0000e-11
Integration weight cutoff        WCut        ...    1.0000e-14
Grids for H and He will be reduced by one unit

# of grid points (after initial pruning)     ... 115882 (   0.1 sec)
# of grid points (after weights+screening)   ... 108554 (   0.3 sec)
nearest neighbour list constructed           ...    0.0 sec
Grid point re-assignment to atoms done       ...    0.0 sec
Grid point division into batches done        ...    1.2 sec
Reduced shell lists constructed in    2.9 sec

Total number of grid points                  ...   108554
Total number of batches                      ...     1703
Average number of points per batch           ...       63
Average number of grid points per atom       ...     9046
Average number of shells per batch           ...    56.19 (55.63%)
Average number of basis functions per batch  ...   149.26 (57.63%)
Average number of large shells per batch     ...    42.97 (76.48%)
Average number of large basis fcns per batch ...   111.23 (74.52%)
Maximum spatial batch extension              ...  34.71, 35.03, 30.35 au
Average spatial batch extension              ...   2.41,  2.39,  2.38 au

Time for grid setup =    3.363 sec

--------------------
COSX GRID GENERATION
--------------------

General Integration Accuracy     IntAcc      ...  3.340
Radial Grid Type                 RadialGrid  ... Gauss-Chebyshev
Angular Grid (max. acc.)         AngularGrid ... Lebedev-50
Angular grid pruning method      GridPruning ... 3 (G Style)
Weight generation scheme         WeightScheme... Becke
Basis function cutoff            BFCut       ...    1.0000e-11
Integration weight cutoff        WCut        ...    1.0000e-14
Grids for H and He will be reduced by one unit

# of grid points (after initial pruning)     ...   6578 (   0.0 sec)
# of grid points (after weights+screening)   ...   6180 (   0.0 sec)
nearest neighbour list constructed           ...    0.0 sec
Grid point re-assignment to atoms done       ...    0.0 sec
Grid point division into batches done        ...    0.0 sec
Reduced shell lists constructed in    0.1 sec

Total number of grid points                  ...     6180
Total number of batches                      ...      104
Average number of points per batch           ...       59
Average number of grid points per atom       ...      515
Average number of shells per batch           ...    68.12 (67.45%)
Average number of basis functions per batch  ...   183.27 (70.76%)
Average number of large shells per batch     ...    53.93 (79.17%)
Average number of large basis fcns per batch ...   141.74 (77.34%)
Maximum spatial batch extension              ...  32.21, 29.39, 29.17 au
Average spatial batch extension              ...   6.32,  5.99,  6.28 au

Overlap Fitting                  UseSFitting ... on
Constructing numerical overlap ... done (      0.1 sec)
Inverting numerical overlap    ... done (      0.0 sec)
Obtaining analytic overlap     ... done (      0.0 sec)
Final contraction and storage  ... done (      0.0 sec)


General Integration Accuracy     IntAcc      ...  3.670
Radial Grid Type                 RadialGrid  ... Gauss-Chebyshev
Angular Grid (max. acc.)         AngularGrid ... Lebedev-50
Angular grid pruning method      GridPruning ... 3 (G Style)
Weight generation scheme         WeightScheme... Becke
Basis function cutoff            BFCut       ...    1.0000e-11
Integration weight cutoff        WCut        ...    1.0000e-14
Grids for H and He will be reduced by one unit

# of grid points (after initial pruning)     ...   8124 (   0.0 sec)
# of grid points (after weights+screening)   ...   7613 (   0.0 sec)
nearest neighbour list constructed           ...    0.0 sec
Grid point re-assignment to atoms done       ...    0.0 sec
Grid point division into batches done        ...    0.0 sec
Reduced shell lists constructed in    0.1 sec

Total number of grid points                  ...     7613
Total number of batches                      ...      125
Average number of points per batch           ...       60
Average number of grid points per atom       ...      634
Average number of shells per batch           ...    67.36 (66.69%)
Average number of basis functions per batch  ...   181.04 (69.90%)
Average number of large shells per batch     ...    53.27 (79.09%)
Average number of large basis fcns per batch ...   139.60 (77.11%)
Maximum spatial batch extension              ...  33.65, 30.82, 29.46 au
Average spatial batch extension              ...   5.76,  5.40,  5.96 au

Overlap Fitting                  UseSFitting ... on
Constructing numerical overlap ... done (      0.1 sec)
Inverting numerical overlap    ... done (      0.0 sec)
Obtaining analytic overlap     ... done (      0.0 sec)
Final contraction and storage  ... done (      0.0 sec)


General Integration Accuracy     IntAcc      ...  4.010
Radial Grid Type                 RadialGrid  ... Gauss-Chebyshev
Angular Grid (max. acc.)         AngularGrid ... Lebedev-110
Angular grid pruning method      GridPruning ... 3 (G Style)
Weight generation scheme         WeightScheme... Becke
Basis function cutoff            BFCut       ...    1.0000e-11
Integration weight cutoff        WCut        ...    1.0000e-14
Grids for H and He will be reduced by one unit

# of grid points (after initial pruning)     ...  15170 (   0.0 sec)
# of grid points (after weights+screening)   ...  14322 (   0.0 sec)
nearest neighbour list constructed           ...    0.0 sec
Grid point re-assignment to atoms done       ...    0.0 sec
Grid point division into batches done        ...    0.0 sec
Reduced shell lists constructed in    0.3 sec

Total number of grid points                  ...    14322
Total number of batches                      ...      228
Average number of points per batch           ...       62
Average number of grid points per atom       ...     1194
Average number of shells per batch           ...    63.87 (63.24%)
Average number of basis functions per batch  ...   171.27 (66.13%)
Average number of large shells per batch     ...    49.70 (77.81%)
Average number of large basis fcns per batch ...   130.37 (76.12%)
Maximum spatial batch extension              ...  34.29, 29.87, 34.29 au
Average spatial batch extension              ...   4.91,  4.72,  5.00 au

Overlap Fitting                  UseSFitting ... on
Constructing numerical overlap ... done (      0.2 sec)
Inverting numerical overlap    ... done (      0.0 sec)
Obtaining analytic overlap     ... done (      0.0 sec)
Final contraction and storage  ... done (      0.0 sec)

Time for X-Grid setup             =    1.223 sec
--------------
SCF ITERATIONS
--------------
ITER       Energy         Delta-E        Max-DP      RMS-DP      [F,P]     Damp
               ***  Starting incremental Fock matrix formation  ***
  0  -1477.3642537922   0.000000000000 0.07495759  0.00113492  0.0751547 0.8500
  1  -1477.3682111277  -0.003957335570 0.06792320  0.00115430  0.0641985 0.8500
                               ***Turning on DIIS***
  2  -1477.3715530067  -0.003341878961 0.07235188  0.00103565  0.0548184 0.8500
  3  -1477.3743561908  -0.002803184112 0.07667476  0.00092280  0.0467756 0.8500
  4  -1477.3767684076  -0.002412216745 0.07947985  0.00088116  0.0397981 0.8500
  5  -1477.3788434401  -0.002075032568 0.07810567  0.00085105  0.0338029 0.8500
  6  -1477.3806563456  -0.001812905442 0.49362398  0.00537798  0.0287164 0.0000
  7  -1477.3922295106  -0.011573165017 0.05909280  0.00075204  0.0018978 0.0000
  8  -1477.3923839624  -0.000154451851 0.04326965  0.00057941  0.0009808 0.0000
               *** Restarting incremental Fock matrix formation ***
                                   *** Resetting DIIS ***
  9  -1477.3924788378  -0.000094875384 0.02734484  0.00041589  0.0012181 0.0000
                      *** Initiating the SOSCF procedure ***
                           *** Shutting down DIIS ***
                      *** Re-Reading the Fockian *** 
                      *** Removing any level shift *** 
ITER      Energy       Delta-E        Grad      Rot      Max-DP    RMS-DP
 10  -1477.39253526  -0.0000564267  0.000841  0.000841  0.020756  0.000322
               *** Restarting incremental Fock matrix formation ***
 11  -1477.39257221  -0.0000369499  0.000774  0.004098  0.035083  0.000639
 12  -1477.39262409  -0.0000518791  0.000476  0.010955  0.082192  0.001614
 13  -1477.39267911  -0.0000550210  0.000610  0.001158  0.014565  0.000325
 14  -1477.39270351  -0.0000243964  0.000267  0.001580  0.020518  0.000286
 15  -1477.39271262  -0.0000091110  0.000207  0.002950  0.046047  0.000648
 16  -1477.39273800  -0.0000253730  0.000215  0.005922  0.041734  0.000845
 17  -1477.39277267  -0.0000346794  0.000253  0.007970  0.043503  0.001109
 18  -1477.39281924  -0.0000465606  0.000326  0.015594  0.093348  0.002344
 19  -1477.39291231  -0.0000930770  0.000457  0.021694  0.143260  0.003632
 20  -1477.39305126  -0.0001389458  0.000505  0.032551  0.200399  0.005223
 21  -1477.39324668  -0.0001954244  0.000635  0.041349  0.232368  0.006638
 22  -1477.39349674  -0.0002500614  0.000869  0.046615  0.260223  0.007454
 23  -1477.39379142  -0.0002946810  0.000910  0.052760  0.326611  0.008289
 24  -1477.39413676  -0.0003453390  0.000930  0.057908  0.319458  0.008332
 25  -1477.39445536  -0.0003185985  0.001334  0.021543  0.135049  0.002372
 26  -1477.39456832  -0.0001129566  0.002087  0.057538  0.284275  0.008884
 27  -1477.39469624  -0.0001279180  0.001747  0.040834  0.226954  0.006121
 28  -1477.39473156  -0.0000353275  0.000586  0.005462  0.029539  0.000849
 29  -1477.39475404  -0.0000224760  0.000228  0.006849  0.030171  0.000929
 30  -1477.39476942  -0.0000153821  0.000174  0.001973  0.013913  0.000234
               *** Restarting incremental Fock matrix formation ***
 31  -1477.39476647   0.0000029500  0.000069  0.001341  0.010376  0.000196
 32  -1477.39476614   0.0000003346  0.000021  0.000544  0.002019  0.000053
 33  -1477.39476593   0.0000002110  0.000024  0.000155  0.001003  0.000019
 34  -1477.39476578   0.0000001516  0.000012  0.000116  0.000516  0.000016
 35  -1477.39476577   0.0000000081  0.000005  0.000144  0.000761  0.000021
 36  -1477.39476579  -0.0000000277  0.000003  0.000087  0.000423  0.000013
                  ***Gradient check signals convergence***
              ***Rediagonalizing the Fockian in SOSCF/NRSCF***

               *****************************************************
               *                     SUCCESS                       *
               *           SCF CONVERGED AFTER  37 CYCLES          *
               *****************************************************

Old exchange energy                            =    -62.613039071 Eh
New exchange energy                            =    -62.612005602 Eh
Exchange energy change after final integration =      0.001033469 Eh
Total energy after final integration           =  -1477.393732404 Eh
Final COS-X integration done in                =    32.619 sec

----------------
TOTAL SCF ENERGY
----------------

Total Energy       :        -1477.39373240 Eh          -40201.92729 eV

Components:
Nuclear Repulsion  :         1109.88313240 Eh           30201.45544 eV
Electronic Energy  :        -2587.27686481 Eh          -70403.38273 eV

One Electron Energy:        -4122.07976612 Eh         -112167.49292 eV
Two Electron Energy:         1534.80290131 Eh           41764.11019 eV

Virial components:
Potential Energy   :        -3132.95940621 Eh          -85252.15958 eV
Kinetic Energy     :         1655.56567380 Eh           45050.23229 eV
Virial Ratio       :            1.89238002


DFT components:
N(Alpha)           :       45.999957379444 electrons
N(Beta)            :       45.999957379444 electrons
N(Total)           :       91.999914758888 electrons
E(X)               :      -55.737036498295 Eh       
E(C)               :       -2.706247558606 Eh       
E(XC)              :      -58.443284056901 Eh       

---------------
SCF CONVERGENCE
---------------

  Last Energy change         ...   -7.8340e-08  Tolerance :   1.0000e-08
  Last MAX-Density change    ...    6.9658e-14  Tolerance :   1.0000e-07
  Last RMS-Density change    ...    6.2437e-16  Tolerance :   5.0000e-09
  Last Orbital Gradient      ...    5.8741e-07  Tolerance :   1.0000e-05
  Last Orbital Rotation      ...    1.1830e-05  Tolerance :   1.0000e-05

             **** THE GBW FILE WAS UPDATED (PbMACl3_mp2_6.orca.gbw) ****
             **** DENSITY FILE WAS UPDATED (PbMACl3_mp2_6.orca.scfp.tmp) ****
             **** ENERGY FILE WAS UPDATED (PbMACl3_mp2_6.orca.en.tmp) ****
----------------
ORBITAL ENERGIES
----------------

  NO   OCC          E(Eh)            E(eV) 
   0   2.0000    -112.033808     -3048.5949 
   1   2.0000    -102.833290     -2798.2361 
   2   2.0000    -102.797629     -2797.2657 
   3   2.0000     -15.049870      -409.5278 
   4   2.0000     -15.040393      -409.2699 
   5   2.0000     -15.034168      -409.1005 
   6   2.0000     -14.974197      -407.4686 
   7   2.0000     -10.716968      -291.6235 
   8   2.0000      -9.842234      -267.8208 
   9   2.0000      -9.806199      -266.8402 
  10   2.0000      -9.460943      -257.4453 
  11   2.0000      -7.478400      -203.4976 
  12   2.0000      -7.478330      -203.4957 
  13   2.0000      -7.477424      -203.4710 
  14   2.0000      -7.442496      -202.5206 
  15   2.0000      -7.441949      -202.5057 
  16   2.0000      -7.441688      -202.4986 
  17   2.0000      -6.076864      -165.3599 
  18   2.0000      -5.373023      -146.2074 
  19   2.0000      -5.370421      -146.1366 
  20   2.0000      -3.376981       -91.8923 
  21   2.0000      -2.750382       -74.8417 
  22   2.0000      -2.736211       -74.4561 
  23   2.0000      -2.253040       -61.3083 
  24   2.0000      -2.251945       -61.2785 
  25   2.0000      -1.717691       -46.7407 
  26   2.0000      -1.151302       -31.3285 
  27   2.0000      -0.886603       -24.1257 
  28   2.0000      -0.864285       -23.5184 
  29   2.0000      -0.830170       -22.5901 
  30   2.0000      -0.717117       -19.5138 
  31   2.0000      -0.705725       -19.2037 
  32   2.0000      -0.703065       -19.1314 
  33   2.0000      -0.676487       -18.4082 
  34   2.0000      -0.672941       -18.3116 
  35   2.0000      -0.607955       -16.5433 
  36   2.0000      -0.528320       -14.3763 
  37   2.0000      -0.526874       -14.3370 
  38   2.0000      -0.352331        -9.5874 
  39   2.0000      -0.347920        -9.4674 
  40   2.0000      -0.340368        -9.2619 
  41   2.0000      -0.326775        -8.8920 
  42   2.0000      -0.313569        -8.5326 
  43   2.0000      -0.303997        -8.2722 
  44   2.0000      -0.180276        -4.9056 
  45   2.0000      -0.175752        -4.7825 
  46   0.0000       0.002611         0.0710 
  47   0.0000       0.022692         0.6175 
  48   0.0000       0.033992         0.9250 
  49   0.0000       0.050821         1.3829 
  50   0.0000       0.082721         2.2510 
  51   0.0000       0.098881         2.6907 
  52   0.0000       0.101266         2.7556 
  53   0.0000       0.112313         3.0562 
  54   0.0000       0.115109         3.1323 
  55   0.0000       0.115638         3.1467 
  56   0.0000       0.123623         3.3640 
  57   0.0000       0.133787         3.6405 
  58   0.0000       0.139480         3.7954 
  59   0.0000       0.157944         4.2979 
  60   0.0000       0.180323         4.9068 
  61   0.0000       0.181899         4.9497 
  62   0.0000       0.187876         5.1124 
  63   0.0000       0.202503         5.5104 
  64   0.0000       0.219844         5.9823 
  65   0.0000       0.245949         6.6926 
  66   0.0000       0.260382         7.0854 
  67   0.0000       0.274818         7.4782 
  68   0.0000       0.297585         8.0977 
  69   0.0000       0.324557         8.8316 
  70   0.0000       0.332918         9.0592 
  71   0.0000       0.372486        10.1359 
  72   0.0000       0.387564        10.5462 
  73   0.0000       0.393013        10.6944 
  74   0.0000       0.406504        11.0615 
  75   0.0000       0.420508        11.4426 
  76   0.0000       0.432908        11.7800 
  77   0.0000       0.451089        12.2748 
  78   0.0000       0.460113        12.5203 
  79   0.0000       0.464625        12.6431 
  80   0.0000       0.469214        12.7680 
  81   0.0000       0.476320        12.9613 
  82   0.0000       0.488989        13.3061 
  83   0.0000       0.499265        13.5857 
  84   0.0000       0.503770        13.7083 
  85   0.0000       0.512377        13.9425 
  86   0.0000       0.523011        14.2319 
  87   0.0000       0.537788        14.6339 
  88   0.0000       0.539453        14.6793 
  89   0.0000       0.548439        14.9238 
  90   0.0000       0.562414        15.3041 
  91   0.0000       0.583417        15.8756 
  92   0.0000       0.589469        16.0403 
  93   0.0000       0.596963        16.2442 
  94   0.0000       0.611027        16.6269 
  95   0.0000       0.622374        16.9357 
  96   0.0000       0.631153        17.1745 
  97   0.0000       0.645003        17.5514 
  98   0.0000       0.654175        17.8010 
  99   0.0000       0.660599        17.9758 
 100   0.0000       0.673151        18.3174 
 101   0.0000       0.711435        19.3591 
 102   0.0000       0.724224        19.7071 
 103   0.0000       0.733292        19.9539 
 104   0.0000       0.758252        20.6331 
 105   0.0000       0.769440        20.9375 
 106   0.0000       0.799487        21.7551 
 107   0.0000       0.820948        22.3391 
 108   0.0000       0.832959        22.6660 
 109   0.0000       0.859314        23.3831 
 110   0.0000       0.876506        23.8510 
 111   0.0000       0.903288        24.5797 
 112   0.0000       0.927366        25.2349 
 113   0.0000       0.986803        26.8523 
 114   0.0000       1.041179        28.3319 
 115   0.0000       1.073001        29.1978 
 116   0.0000       1.111208        30.2375 
 117   0.0000       1.171713        31.8839 
 118   0.0000       1.178942        32.0806 
 119   0.0000       1.199114        32.6296 
 120   0.0000       1.227437        33.4003 
 121   0.0000       1.267953        34.5028 
 122   0.0000       1.297539        35.3078 
 123   0.0000       1.323638        36.0180 
 124   0.0000       1.341608        36.5070 
 125   0.0000       1.372675        37.3524 
 126   0.0000       1.391263        37.8582 
 127   0.0000       1.426936        38.8289 
 128   0.0000       1.440024        39.1850 
 129   0.0000       1.466943        39.9176 
 130   0.0000       1.491893        40.5965 
 131   0.0000       1.501309        40.8527 
 132   0.0000       1.556144        42.3448 
 133   0.0000       1.558833        42.4180 
 134   0.0000       1.579292        42.9747 
 135   0.0000       1.587748        43.2048 
 136   0.0000       1.608553        43.7709 
 137   0.0000       1.611927        43.8628 
 138   0.0000       1.622076        44.1389 
 139   0.0000       1.748338        47.5747 
 140   0.0000       1.775175        48.3050 
 141   0.0000       1.789046        48.6824 
 142   0.0000       1.807293        49.1790 
 143   0.0000       1.821405        49.5629 
 144   0.0000       1.881312        51.1931 
 145   0.0000       1.889655        51.4201 
 146   0.0000       1.901716        51.7483 
 147   0.0000       1.938397        52.7465 
 148   0.0000       1.974451        53.7275 
 149   0.0000       1.983565        53.9755 
 150   0.0000       2.001640        54.4674 
 151   0.0000       2.011967        54.7484 
 152   0.0000       2.035053        55.3766 
 153   0.0000       2.039406        55.4951 
 154   0.0000       2.047192        55.7069 
 155   0.0000       2.053013        55.8653 
 156   0.0000       2.080070        56.6016 
 157   0.0000       2.127824        57.9010 
 158   0.0000       2.141835        58.2823 
 159   0.0000       2.166855        58.9631 
 160   0.0000       2.204206        59.9795 
 161   0.0000       2.229604        60.6706 
 162   0.0000       2.230957        60.7074 
 163   0.0000       2.260206        61.5033 
 164   0.0000       2.268099        61.7181 
 165   0.0000       2.277972        61.9868 
 166   0.0000       2.281258        62.0762 
 167   0.0000       2.287995        62.2595 
 168   0.0000       2.299452        62.5713 
 169   0.0000       2.303427        62.6794 
 170   0.0000       2.310532        62.8728 
 171   0.0000       2.332850        63.4801 
 172   0.0000       2.343469        63.7690 
 173   0.0000       2.353053        64.0298 
 174   0.0000       2.364352        64.3373 
 175   0.0000       2.378885        64.7328 
 176   0.0000       2.387957        64.9796 
 177   0.0000       2.410951        65.6053 
 178   0.0000       2.424102        65.9632 
 179   0.0000       2.430808        66.1457 
 180   0.0000       2.433406        66.2163 
 181   0.0000       2.447076        66.5883 
 182   0.0000       2.460065        66.9418 
 183   0.0000       2.464055        67.0503 
 184   0.0000       2.500206        68.0341 
 185   0.0000       2.520499        68.5863 
 186   0.0000       2.528126        68.7938 
 187   0.0000       2.560213        69.6669 
 188   0.0000       2.585921        70.3665 
 189   0.0000       2.591404        70.5157 
 190   0.0000       2.612836        71.0989 
 191   0.0000       2.627817        71.5065 
 192   0.0000       2.642388        71.9030 
 193   0.0000       2.667335        72.5819 
 194   0.0000       2.697610        73.4057 
 195   0.0000       2.768222        75.3271 
 196   0.0000       2.788205        75.8709 
 197   0.0000       2.795827        76.0783 
 198   0.0000       2.802802        76.2681 
 199   0.0000       2.843913        77.3868 
 200   0.0000       2.870693        78.1155 
 201   0.0000       2.909038        79.1589 
 202   0.0000       3.032813        82.5270 
 203   0.0000       3.125585        85.0515 
 204   0.0000       3.135240        85.3142 
 205   0.0000       3.206688        87.2584 
 206   0.0000       3.222190        87.6803 
 207   0.0000       3.286091        89.4191 
 208   0.0000       3.292386        89.5904 
 209   0.0000       3.325709        90.4971 
 210   0.0000       3.357972        91.3751 
 211   0.0000       3.389039        92.2204 
 212   0.0000       3.548012        96.5463 
 213   0.0000       3.572067        97.2009 
 214   0.0000       3.581469        97.4567 
 215   0.0000       3.709529       100.9414 
 216   0.0000       3.761517       102.3561 
 217   0.0000       3.782438       102.9254 
 218   0.0000       3.828485       104.1784 
 219   0.0000       3.918618       106.6310 
 220   0.0000       4.172728       113.5457 
 221   0.0000       4.180198       113.7490 
 222   0.0000       4.198854       114.2566 
 223   0.0000       4.403877       119.8356 
 224   0.0000       4.434434       120.6671 
 225   0.0000       4.453071       121.1742 
 226   0.0000       4.836387       131.6048 
 227   0.0000       4.839331       131.6849 
 228   0.0000       4.938220       134.3758 
 229   0.0000       4.948508       134.6558 
 230   0.0000       4.964296       135.0854 
 231   0.0000       5.098026       138.7243 
 232   0.0000       5.112803       139.1264 
 233   0.0000       5.120680       139.3408 
 234   0.0000       5.320315       144.7731 
 235   0.0000       5.497974       149.6075 
 236   0.0000       5.521647       150.2517 
 237   0.0000       5.790234       157.5603 
 238   0.0000       5.856604       159.3663 
 239   0.0000       5.991149       163.0275 
 240   0.0000       7.470464       203.2817 
 241   0.0000       7.532919       204.9812 
 242   0.0000      10.163887       276.5734 
 243   0.0000      11.074175       301.3436 
 244   0.0000      11.104638       302.1726 
 245   0.0000      11.151970       303.4605 
 246   0.0000      11.156930       303.5955 
 247   0.0000      11.196223       304.6647 
 248   0.0000      11.236968       305.7735 
 249   0.0000      22.659153       616.5869 
 250   0.0000      25.137191       684.0178 
 251   0.0000      25.504771       694.0201 
 252   0.0000      32.382767       881.1799 
 253   0.0000      33.981118       924.6732 
 254   0.0000      35.750854       972.8302 
 255   0.0000      35.783050       973.7063 
 256   0.0000      37.941770      1032.4481 
 257   0.0000      83.898436      2282.9925 
 258   0.0000     119.008746      3238.3926 

                    ********************************
                    * MULLIKEN POPULATION ANALYSIS *
                    ********************************

-----------------------
MULLIKEN ATOMIC CHARGES
-----------------------
   0 C :   -0.258010
   1 N :   -0.343363
   2 H :    0.159109
   3 H :    0.168623
   4 H :    0.155953
   5 H :    0.308682
   6 H :    0.291489
   7 H :    0.282321
   8 Pb:   -4.182664
   9 Cl:    4.751709
  10 Cl:   -0.708715
  11 Cl:   -0.625134
Sum of atomic charges:   -0.0000000

--------------------------------
MULLIKEN REDUCED ORBITAL CHARGES
--------------------------------
  0 C s       :     3.278727  s :     3.278727
      pz      :     0.971419  p :     2.905047
      px      :     1.000165
      py      :     0.933463
      dz2     :     0.006892  d :     0.068202
      dxz     :     0.018431
      dyz     :     0.017365
      dx2y2   :     0.007357
      dxy     :     0.018157
      f0      :     0.000364  f :     0.006035
      f+1     :     0.000510
      f-1     :     0.000749
      f+2     :     0.000705
      f-2     :     0.002644
      f+3     :     0.000510
      f-3     :     0.000553
  1 N s       :     3.431716  s :     3.431716
      pz      :     1.295216  p :     3.862272
      px      :     1.276788
      py      :     1.290268
      dz2     :     0.005523  d :     0.047188
      dxz     :     0.012154
      dyz     :     0.010999
      dx2y2   :     0.005909
      dxy     :     0.012603
      f0      :     0.000127  f :     0.002186
      f+1     :     0.000161
      f-1     :     0.000197
      f+2     :     0.000212
      f-2     :     0.001156
      f+3     :     0.000156
      f-3     :     0.000176
  2 H s       :     0.819147  s :     0.819147
      pz      :     0.008394  p :     0.021744
      px      :     0.007711
      py      :     0.005638
  3 H s       :     0.809455  s :     0.809455
      pz      :     0.007004  p :     0.021921
      px      :     0.007394
      py      :     0.007523
  4 H s       :     0.822342  s :     0.822342
      pz      :     0.006722  p :     0.021706
      px      :     0.007352
      py      :     0.007631
  5 H s       :     0.643883  s :     0.643883
      pz      :     0.010368  p :     0.047435
      px      :     0.016288
      py      :     0.020778
  6 H s       :     0.675214  s :     0.675214
      pz      :     0.011047  p :     0.033298
      px      :     0.010104
      py      :     0.012148
  7 H s       :     0.676380  s :     0.676380
      pz      :     0.016815  p :     0.041300
      px      :     0.016844
      py      :     0.007641
  8 Pbs       :     4.038571  s :     4.038571
      pz      :     3.515563  p :    10.157023
      px      :     2.821028
      py      :     3.820431
      dz2     :     2.393364  d :    10.912718
      dxz     :     2.081322
      dyz     :     2.397398
      dx2y2   :     2.018526
      dxy     :     2.022108
      f0      :     0.057472  f :     1.074352
      f+1     :     0.033466
      f-1     :     0.221357
      f+2     :     0.325666
      f-2     :     0.269162
      f+3     :     0.069092
      f-3     :     0.098137
  9 Cls       :     3.971261  s :     3.971261
      pz      :     2.618043  p :     8.424039
      px      :     3.596607
      py      :     2.209389
      dz2     :    -0.275052  d :     0.203187
      dxz     :     0.084469
      dyz     :     0.448904
      dx2y2   :     0.017016
      dxy     :    -0.072151
      f0      :    -0.035949  f :    -0.350196
      f+1     :    -0.070639
      f-1     :    -0.026469
      f+2     :    -0.046689
      f-2     :    -0.047760
      f+3     :    -0.069173
      f-3     :    -0.053518
 10 Cls       :     5.959244  s :     5.959244
      pz      :     3.929158  p :    11.734807
      px      :     3.899990
      py      :     3.905659
      dz2     :     0.002545  d :     0.014398
      dxz     :     0.002338
      dyz     :     0.001947
      dx2y2   :     0.004777
      dxy     :     0.002792
      f0      :     0.000038  f :     0.000266
      f+1     :     0.000040
      f-1     :     0.000042
      f+2     :     0.000042
      f-2     :     0.000026
      f+3     :     0.000049
      f-3     :     0.000030
 11 Cls       :     5.957456  s :     5.957456
      pz      :     3.832499  p :    11.642537
      px      :     3.927382
      py      :     3.882656
      dz2     :     0.009741  d :     0.024108
      dxz     :     0.003973
      dyz     :     0.005373
      dx2y2   :     0.001560
      dxy     :     0.003461
      f0      :     0.000346  f :     0.001033
      f+1     :     0.000162
      f-1     :     0.000194
      f+2     :     0.000053
      f-2     :     0.000104
      f+3     :     0.000143
      f-3     :     0.000031


                     *******************************
                     * LOEWDIN POPULATION ANALYSIS *
                     *******************************

----------------------
LOEWDIN ATOMIC CHARGES
----------------------
   0 C :   -0.272066
   1 N :    0.082878
   2 H :    0.125484
   3 H :    0.130802
   4 H :    0.123777
   5 H :    0.139805
   6 H :    0.201903
   7 H :    0.162019
   8 Pb:    4.549508
   9 Cl:   -4.455533
  10 Cl:   -0.485767
  11 Cl:   -0.302809

-------------------------------
LOEWDIN REDUCED ORBITAL CHARGES
-------------------------------
  0 C s       :     2.853981  s :     2.853981
      pz      :     1.030987  p :     3.080639
      px      :     1.044954
      py      :     1.004699
      dz2     :     0.030366  d :     0.300550
      dxz     :     0.078984
      dyz     :     0.079033
      dx2y2   :     0.029804
      dxy     :     0.082363
      f0      :     0.005374  f :     0.036895
      f+1     :     0.004026
      f-1     :     0.005872
      f+2     :     0.004106
      f-2     :     0.007060
      f+3     :     0.004924
      f-3     :     0.005533
  1 N s       :     3.002523  s :     3.002523
      pz      :     1.249837  p :     3.745058
      px      :     1.247753
      py      :     1.247469
      dz2     :     0.017349  d :     0.160060
      dxz     :     0.041835
      dyz     :     0.040294
      dx2y2   :     0.019027
      dxy     :     0.041555
      f0      :     0.001453  f :     0.009481
      f+1     :     0.001116
      f-1     :     0.001410
      f+2     :     0.001031
      f-2     :     0.001681
      f+3     :     0.001248
      f-3     :     0.001540
  2 H s       :     0.812147  s :     0.812147
      pz      :     0.023114  p :     0.062369
      px      :     0.021589
      py      :     0.017666
  3 H s       :     0.806621  s :     0.806621
      pz      :     0.019528  p :     0.062576
      px      :     0.022441
      py      :     0.020608
  4 H s       :     0.813930  s :     0.813930
      pz      :     0.020667  p :     0.062293
      px      :     0.020685
      py      :     0.020941
  5 H s       :     0.709280  s :     0.709280
      pz      :     0.036209  p :     0.150916
      px      :     0.050883
      py      :     0.063824
  6 H s       :     0.700231  s :     0.700231
      pz      :     0.031629  p :     0.097867
      px      :     0.031940
      py      :     0.034298
  7 H s       :     0.712595  s :     0.712595
      pz      :     0.049919  p :     0.125386
      px      :     0.049032
      py      :     0.026435
  8 Pbs       :     2.513836  s :     2.513836
      pz      :     2.089655  p :     6.181522
      px      :     2.140720
      py      :     1.951147
      dz2     :     1.391110  d :     7.101587
      dxz     :     1.409753
      dyz     :     1.452840
      dx2y2   :     1.371889
      dxy     :     1.475996
      f0      :     0.098544  f :     1.653546
      f+1     :     0.145643
      f-1     :     0.255240
      f+2     :     0.405936
      f-2     :     0.359392
      f+3     :     0.171832
      f-3     :     0.216959
  9 Cls       :     4.847114  s :     4.847114
      pz      :     3.706015  p :    11.051854
      px      :     3.675437
      py      :     3.670403
      dz2     :     0.827184  d :     4.510076
      dxz     :     0.883888
      dyz     :     1.128056
      dx2y2   :     0.836091
      dxy     :     0.834856
      f0      :     0.076434  f :     1.046488
      f+1     :     0.138386
      f-1     :     0.109785
      f+2     :     0.203359
      f-2     :     0.186293
      f+3     :     0.172188
      f-3     :     0.160042
 10 Cls       :     5.838290  s :     5.838290
      pz      :     3.900285  p :    11.626262
      px      :     3.871725
      py      :     3.854253
      dz2     :     0.004092  d :     0.020390
      dxz     :     0.002885
      dyz     :     0.001646
      dx2y2   :     0.006884
      dxy     :     0.004882
      f0      :     0.000060  f :     0.000825
      f+1     :     0.000084
      f-1     :     0.000168
      f+2     :     0.000104
      f-2     :     0.000049
      f+3     :     0.000269
      f-3     :     0.000090
 11 Cls       :     5.780787  s :     5.780787
      pz      :     3.762740  p :    11.482394
      px      :     3.888783
      py      :     3.830871
      dz2     :     0.019423  d :     0.037541
      dxz     :     0.004953
      dyz     :     0.004968
      dx2y2   :     0.002529
      dxy     :     0.005669
      f0      :     0.000849  f :     0.002087
      f+1     :     0.000296
      f-1     :     0.000239
      f+2     :     0.000109
      f-2     :     0.000232
      f+3     :     0.000324
      f-3     :     0.000038


                      *****************************
                      * MAYER POPULATION ANALYSIS *
                      *****************************

  NA   - Mulliken gross atomic population
  ZA   - Total nuclear charge
  QA   - Mulliken gross atomic charge
  VA   - Mayer's total valence
  BVA  - Mayer's bonded valence
  FA   - Mayer's free valence

  ATOM       NA         ZA         QA         VA         BVA        FA
  0 C      6.2580     6.0000    -0.2580     3.8236     3.8236    -0.0000
  1 N      7.3434     7.0000    -0.3434     3.3815     3.3815    -0.0000
  2 H      0.8409     1.0000     0.1591     0.9612     0.9612     0.0000
  3 H      0.8314     1.0000     0.1686     0.9626     0.9626    -0.0000
  4 H      0.8440     1.0000     0.1560     0.9615     0.9615     0.0000
  5 H      0.6913     1.0000     0.3087     0.9754     0.9754    -0.0000
  6 H      0.7085     1.0000     0.2915     0.8963     0.8963     0.0000
  7 H      0.7177     1.0000     0.2823     1.0073     1.0073    -0.0000
  8 Pb    26.1827    22.0000    -4.1827    -7.5679    -7.5679     0.0000
  9 Cl    12.2483    17.0000     4.7517    -8.3043    -8.3043    -0.0000
 10 Cl    17.7087    17.0000    -0.7087     0.5047     0.5047     0.0000
 11 Cl    17.6251    17.0000    -0.6251     0.6877     0.6877     0.0000

  Mayer bond orders larger than 0.1
B(  0-C ,  1-N ) :   0.8922 B(  0-C ,  2-H ) :   0.9695 B(  0-C ,  3-H ) :   0.9660 
B(  0-C ,  4-H ) :   0.9690 B(  1-N ,  5-H ) :   0.7629 B(  1-N ,  6-H ) :   0.9017 
B(  1-N ,  7-H ) :   0.8007 B(  5-H , 11-Cl) :   0.2227 B(  7-H , 10-Cl) :   0.2012 
B(  8-Pb,  9-Cl) :  -8.3624 B(  8-Pb, 10-Cl) :   0.4039 B(  8-Pb, 11-Cl) :   0.3641 
B(  9-Cl, 11-Cl) :   0.1084 

-------
TIMINGS
-------

Total SCF time: 0 days 0 hours 12 min 38 sec 

Total time                  ....     758.685 sec
Sum of individual times     ....     724.837 sec  ( 95.5%)

Fock matrix formation       ....     718.718 sec  ( 94.7%)
  Coulomb formation         ....     607.774 sec  ( 84.6% of F)
  Split-RI-J                ....      38.575 sec  (  5.4% of F)
  Chain of spheres X        ....     601.692 sec  ( 83.7% of F)
  COS-X 1 center corr.      ....       0.000 sec  (  0.0% of F)
  XC integration            ....     110.969 sec  ( 15.4% of F)
    Basis function eval.    ....      33.339 sec  ( 30.0% of XC)
    Density eval.           ....      32.543 sec  ( 29.3% of XC)
    XC-Functional eval.     ....       6.428 sec  (  5.8% of XC)
    XC-Potential eval.      ....      36.591 sec  ( 33.0% of XC)
Diagonalization             ....       0.454 sec  (  0.1%)
Density matrix formation    ....       0.092 sec  (  0.0%)
Population analysis         ....       0.082 sec  (  0.0%)
Initial guess               ....       0.166 sec  (  0.0%)
Orbital Transformation      ....       0.000 sec  (  0.0%)
Orbital Orthonormalization  ....       0.162 sec  (  0.0%)
DIIS solution               ....       0.123 sec  (  0.0%)
SOSCF solution              ....       0.617 sec  (  0.1%)
Grid generation             ....       4.585 sec  (  0.6%)

------------------------------------------------------------------------------
                              ORCA MP2 CALCULATION
------------------------------------------------------------------------------


----------------------
RI-MP2 ENERGY+GRADIENT
----------------------
Dimension of the basis                    ...  259
Memory devoted to MP2                     ... 1000 MB   
Data format for buffers                   ... DOUBLE
Compression type for matrix containers    ... UNCOMPRESSED
Overall scaling of the MP2 energy         ...   2.700e-01 Eh
Calculating two index integrals           ... done (    0.015 sec)
Cholesky decomposition of the V-matrix    ... done
Cholesky decomposition of V**-1           ... done (    0.036 sec)

-----------------
RI-TRANSFORMATION (AUX index driven)
-----------------

Dimension of the orbital-basis         ... 259
Dimension of the aux-basis             ... 493
Transformation of internal MOs         ...    0-  45
Transformation of internal/external MOs...    0-  45 to   46- 258
Number Format for Storage              ... Double (8 Byte)
Integral mode                          ... Direct

First Phase: integral generation and transformation of MO indices
  Aux angular momentum 0               ... done (    0.548 sec)
  Aux angular momentum 1               ... done (    0.462 sec)
  Aux angular momentum 2               ... done (    0.561 sec)
  Aux angular momentum 3               ... done (    0.330 sec)
  Aux angular momentum 4               ... done (    0.294 sec)
Closing buffer VIJ ( 0.00 GB; CompressionRatio= 1.95)
Closing buffer VIA ( 0.04 GB; CompressionRatio= 1.00)
  Phase 1 completed in     2.308 sec
Second Phase: sorting and transformation of aux index

IJ-Transformation
Memory available                       ... 990 MB 
Max. # MO pairs treated in a batch     ... 46    
# of internal orbitals                 ... 46
# batches for internal orbitals        ... 1
Closing buffer IJV ( 0.00 GB; CompressionRatio= 1.00)
(ij|v) transformation done in     0.144 sec

IA-Transformation
Memory available                       ... 990 MB 
Max. # MO pairs treated in a batch     ... 46    
# of internal orbitals                 ... 46
# batches for internal orbitals        ... 1
Closing buffer IAV ( 0.04 GB; CompressionRatio= 1.00)
(ia|v) transformation done in     0.614 sec

  Phase 2 completed in     0.791 sec
RI-Integral transformation completed in     3.100 sec
Opening buffers                              ... done

Starting loop over batches of integrals:

Operator 0  - window                       ... (  0- 45)x( 46-258)
Operator 0  - Memory available             ...  1000 MB
Operator 0  - Memory needed per MO         ...   1.6 MB
Operator 0  - Number of orbitals per batch ... 46
Operator 0  - Number of batches            ... 1

OPERATOR  0   PASS   0:  MOs     0 ...   45
  Reading integrals       ... ok
  Internal MO   2
  Internal MO   5
  Internal MO   8
  Internal MO  11
  Internal MO  14
  Internal MO  17
  Internal MO  20
  Internal MO  23
  Internal MO  26
  Internal MO  29
  Internal MO  32
  Internal MO  35
  Internal MO  38
  Internal MO  41
  Internal MO  44
Closing buffer GIPV ( 0.04 GB; CompressionRatio= 1.00)
Time spent in pair loops =    68.158 sec

-----------------------------------------------
 RI-MP2 CORRELATION ENERGY:     -0.588101126 Eh
-----------------------------------------------


---------------------
MP2 DENSITY FORMATION
---------------------

Completing the external part of the density      ... done
Storing the unrelaxed density                    ... done

Calculating the xc-kernel                        ... done
Calculating G(D)                                 ... done
Completing the Lagrangian                        ... done
Solving the Z-vector equations                   ... 

------------------------------------------------------------------------------
                           ORCA CP-SCF CALCULATION
------------------------------------------------------------------------------

Input orbitals are from        ... PbMACl3_mp2_6.orca.gbw
Input Perturbation             ... PbMACl3_mp2_6.orca.pin.tmp
Wavefunction output            ... PbMACl3_mp2_6.orca.pout.tmp
Perturbation mode              ... Real perturbation
Solver                         ... DIIS
   MaxDIIS                     ... 20
   Levelshift                  ...    3.000e-01 Eh
Max. number of iterations      ... 128
Convergence tolerance          ... 1.000e-08
Integral handling              ... Direct
COSX GridX                     ... 1
Number of perturbations        ... 1
Number of operators            ... 1
Orbital ranges used for CP-SCF:
 Operator 0:  Orbitals   0... 45  to  46...258
DFT calculation                         ... on
Exchange functional (SCF)               ... B88
Exchange functional (CP-SCF)            ... B88
   X-Alpha parameter    XAlpha (SCF)    ...  0.666667
   X-Alpha parameter    XAlpha (CP-SCF) ...  0.666667
   Becke's b parameter  XBeta (SCF)     ...  0.004200
   Becke's b parameter  XBeta (CP-SCF)  ...  0.004200
Correlation functional (SCF)            ... LYP
Correlation functional (CP-SCF)         ... LYP
 LDA part of GGA corr.  LDAOpt (SCF)    ... VWN-3
 LDA part of GGA corr.  LDAOpt (CP-SCF) ... VWN-3
Hybrid DFT                              ... on
   Exchange mixing (SCF)                ...  0.530
   Exchange mixing (CP-SCF)             ...  0.530
   GGA exch. scaling(SCF)               ...  0.470
   GGA exch. scaling (CP-SCF)           ...  0.470
   GGA corr. scaling (SCF)              ...  0.730
   GGA corr. scaling (CP-SCF)           ...  0.730
The RIJCOSX approximation is active
Variables per vector in CP-SCF ... 9798
Number of vectors sought       ... 1
Calculating the xc-kernel      ... done

Solving the CP-SCF equations by a DIIS algorithm

-----------------
CP-SCF ITERATIONS
-----------------
  Iteration   0: MaxR=  0.094480211
  Iteration   1: MaxR=  0.053323631
  Iteration   2: MaxR=  0.030299031
  Iteration   3: MaxR=  0.020114130
  Iteration   4: MaxR=  0.011558326
  Iteration   5: MaxR=  0.005468130
  Iteration   6: MaxR=  0.003205308
  Iteration   7: MaxR=  0.002267509
  Iteration   8: MaxR=  0.001727716
  Iteration   9: MaxR=  0.001347281
  Iteration  10: MaxR=  0.001143737
  Iteration  11: MaxR=  0.000953517
  Iteration  12: MaxR=  0.000830296
  Iteration  13: MaxR=  0.000711153
  Iteration  14: MaxR=  0.000603728
  Iteration  15: MaxR=  0.000552284
  Iteration  16: MaxR=  0.000528840
  Iteration  17: MaxR=  0.000518600
  Iteration  18: MaxR=  0.000512220
  Iteration  19: MaxR=  0.000506296
  Iteration  20: MaxR=  0.000498568
  Iteration  21: MaxR=  0.000489234
  Iteration  22: MaxR=  0.000475550
  Iteration  23: MaxR=  0.000439123
  Iteration  24: MaxR=  0.000329514
  Iteration  25: MaxR=  0.000176853
  Iteration  26: MaxR=  0.000103757
  Iteration  27: MaxR=  0.000069867
  Iteration  28: MaxR=  0.000043652
  Iteration  29: MaxR=  0.000023982
  Iteration  30: MaxR=  0.000013182
  Iteration  31: MaxR=  0.000007207
  Iteration  32: MaxR=  0.000004214
  Iteration  33: MaxR=  0.000002963
  Iteration  34: MaxR=  0.000002183
  Iteration  35: MaxR=  0.000001548
  Iteration  36: MaxR=  0.000000896
  Iteration  37: MaxR=  0.000000429
  Iteration  38: MaxR=  0.000000237
  Iteration  39: MaxR=  0.000000124
  Iteration  40: MaxR=  0.000000070
  Iteration  41: MaxR=  0.000000044
  Iteration  42: MaxR=  0.000000028
  Iteration  43: MaxR=  0.000000018
  Iteration  44: MaxR=  0.000000012
  Iteration  45: MaxR=  0.000000007
                              *** THE CP-SCF HAS CONVERGED *** 
done
Finalizing the relaxed density                   ... done
Transforming P to the AO basis                   ... done
Storing the relaxed density                      ... done

------------------------------------
ENERGY WEIGHTED DENSITY FINALIZATION
------------------------------------

Gathering the parts of the W-matrix              ... done
Forming the Z-density                            ... done
Transforming Z to the AO basis                   ... done
Calculating G(Z)                                 ... done
Finalizing the W-matrix                          ... done
Transforming W to the AO basis and storing       ... done
Entering the RIJONX and RIJCOSX sections
Starting the three-index derivative integrals:
Operator 0  - Memory available             ...  1000 MB
Operator 0  - Memory needed per MO         ...   1.0 MB
Operator 0  - Number of orbitals per batch ... 46
Operator 0  - Number of batches            ... 1

OPERATOR  0   PASS   0:  MOs     0 ...   45

----------------------------------
MP2 DERIVATIVE INTEGRAL GENERATION
----------------------------------


Input Correlated Electron Density   ... PbMACl3_mp2_6.orca.pmp2re
Input Energy Weighted Density       ... PbMACl3_mp2_6.orca.wmp2.tmp
Input SCF Electron Density          ... PbMACl3_mp2_6.orca.scfp.tmp

One-Electron Terms    ...
  ECP gradient                                           ... One-Electron Terms done

-----------------------------------------------------------
MP2 COSX Grid Generation
-----------------------------------------------------------

General Integration Accuracy     IntAcc      ...  4.340
Radial Grid Type                 RadialGrid  ... Gauss-Chebyshev
Angular Grid (max. acc.)         AngularGrid ... Lebedev-302
Angular grid pruning method      GridPruning ... 3 (G Style)
Weight generation scheme         WeightScheme... Becke
Basis function cutoff            BFCut       ...    1.0000e-11
Integration weight cutoff        WCut        ...    1.0000e-14
Grids for H and He will be reduced by one unit

# of grid points (after initial pruning)     ...  57718 (   0.0 sec)
# of grid points (after weights+screening)   ...  54281 (   0.2 sec)
nearest neighbour list constructed           ...    0.0 sec
Grid point re-assignment to atoms done       ...    0.0 sec
Grid point division into batches done        ...    0.3 sec
Reduced shell lists constructed in    1.2 sec

Total number of grid points                  ...    54281
Total number of batches                      ...      854
Average number of points per batch           ...       63
Average number of grid points per atom       ...     4523
Average number of shells per batch           ...    57.87 (57.30%)
Average number of basis functions per batch  ...   154.38 (59.60%)
Average number of large shells per batch     ...    44.37 (76.68%)
Average number of large basis fcns per batch ...   115.44 (74.78%)
Maximum spatial batch extension              ...  35.78, 32.20, 31.07 au
Average spatial batch extension              ...   3.11,  3.04,  3.04 au

Overlap Fitting                  UseSFitting ... on
Two electron COSX terms .... 
Integration Timings:
Total Time                  =   135.2 sec
Basis fcn evaluation        =     0.4 sec
Density evaluation          =     1.4 sec
Integral evaluation         =   130.5 sec
K(P) evaluation             =     1.2 sec
                          .... COSX two electron terms done
COSX two-electron contribution to the gradient
     0:    -0.022274    -0.023515    -0.021259
     1:     0.048830     0.075527     0.073153
     2:     0.100720    -0.081555     0.107163
     3:    -0.104841     0.099625     0.090842
     4:     0.095331     0.098159    -0.096857
     5:    -0.097741    -0.098385     0.086718
     6:     0.106499    -0.134642    -0.118911
     7:    -0.107654     0.080530    -0.114994
     8:   -23.640664    10.626626    -9.730183
     9:    23.662059   -10.651351     9.699727
    10:    -0.020549     0.017479    -0.013964
    11:    -0.020376    -0.008542     0.040243
Exchange-correlation gradient    ... done
Dispersion correction            ... 
Entering the calculation of the dispersion correction...

Checking the input atom types...

Done
done

                *********************************************
                * UNRELAXED MP2 DENSITY POPULATION ANALYSIS *
                *********************************************

------------------------------------------------------------------------------
                           ORCA POPULATION ANALYSIS
------------------------------------------------------------------------------
Input electron density              ... PbMACl3_mp2_6.orca.pmp2ur
BaseName (.gbw .S,...)              ... PbMACl3_mp2_6.orca

                    ********************************
                    * MULLIKEN POPULATION ANALYSIS *
                    ********************************

-----------------------
MULLIKEN ATOMIC CHARGES
-----------------------
   0 C :   -0.262404
   1 N :   -0.342785
   2 H :    0.160131
   3 H :    0.169632
   4 H :    0.156934
   5 H :    0.307241
   6 H :    0.291635
   7 H :    0.280995
   8 Pb:   -4.127069
   9 Cl:    4.687798
  10 Cl:   -0.703788
  11 Cl:   -0.618320
Sum of atomic charges:   -0.0000000

--------------------------------
MULLIKEN REDUCED ORBITAL CHARGES
--------------------------------
  0 C s       :     3.277447  s :     3.277447
      pz      :     0.970040  p :     2.901043
      px      :     0.998629
      py      :     0.932374
      dz2     :     0.008911  d :     0.076740
      dxz     :     0.019991
      dyz     :     0.018828
      dx2y2   :     0.009349
      dxy     :     0.019662
      f0      :     0.000521  f :     0.007174
      f+1     :     0.000684
      f-1     :     0.000919
      f+2     :     0.000887
      f-2     :     0.002768
      f+3     :     0.000676
      f-3     :     0.000719
  1 N s       :     3.429525  s :     3.429525
      pz      :     1.291649  p :     3.851961
      px      :     1.273450
      py      :     1.286862
      dz2     :     0.007818  d :     0.058076
      dxz     :     0.014231
      dyz     :     0.013126
      dx2y2   :     0.008207
      dxy     :     0.014694
      f0      :     0.000271  f :     0.003223
      f+1     :     0.000311
      f-1     :     0.000350
      f+2     :     0.000367
      f-2     :     0.001296
      f+3     :     0.000303
      f-3     :     0.000325
  2 H s       :     0.817117  s :     0.817117
      pz      :     0.008714  p :     0.022752
      px      :     0.008041
      py      :     0.005996
  3 H s       :     0.807461  s :     0.807461
      pz      :     0.007332  p :     0.022906
      px      :     0.007727
      py      :     0.007848
  4 H s       :     0.820347  s :     0.820347
      pz      :     0.007071  p :     0.022719
      px      :     0.007687
      py      :     0.007961
  5 H s       :     0.644709  s :     0.644709
      pz      :     0.010583  p :     0.048050
      px      :     0.016477
      py      :     0.020990
  6 H s       :     0.674344  s :     0.674344
      pz      :     0.011291  p :     0.034021
      px      :     0.010347
      py      :     0.012383
  7 H s       :     0.677153  s :     0.677153
      pz      :     0.016979  p :     0.041852
      px      :     0.017006
      py      :     0.007866
  8 Pbs       :     4.020040  s :     4.020040
      pz      :     3.506705  p :    10.116732
      px      :     2.803118
      py      :     3.806909
      dz2     :     2.387939  d :    10.899063
      dxz     :     2.082500
      dyz     :     2.392816
      dx2y2   :     2.016447
      dxy     :     2.019361
      f0      :     0.061220  f :     1.091234
      f+1     :     0.036724
      f-1     :     0.223913
      f+2     :     0.326216
      f-2     :     0.270473
      f+3     :     0.072314
      f-3     :     0.100374
  9 Cls       :     3.985989  s :     3.985989
      pz      :     2.615187  p :     8.422119
      px      :     3.594067
      py      :     2.212865
      dz2     :    -0.261853  d :     0.253856
      dxz     :     0.093725
      dyz     :     0.454907
      dx2y2   :     0.027124
      dxy     :    -0.060048
      f0      :    -0.035654  f :    -0.349762
      f+1     :    -0.070530
      f-1     :    -0.026256
      f+2     :    -0.046625
      f-2     :    -0.047611
      f+3     :    -0.069543
      f-3     :    -0.053543
 10 Cls       :     5.954961  s :     5.954961
      pz      :     3.914902  p :    11.691325
      px      :     3.885515
      py      :     3.890909
      dz2     :     0.010472  d :     0.054486
      dxz     :     0.010258
      dyz     :     0.010035
      dx2y2   :     0.012844
      dxy     :     0.010877
      f0      :     0.000422  f :     0.003016
      f+1     :     0.000421
      f-1     :     0.000433
      f+2     :     0.000437
      f-2     :     0.000418
      f+3     :     0.000452
      f-3     :     0.000435
 11 Cls       :     5.953204  s :     5.953204
      pz      :     3.816409  p :    11.596876
      px      :     3.912606
      py      :     3.867861
      dz2     :     0.017943  d :     0.064396
      dxz     :     0.012045
      dyz     :     0.013551
      dx2y2   :     0.009480
      dxy     :     0.011376
      f0      :     0.000769  f :     0.003843
      f+1     :     0.000575
      f-1     :     0.000610
      f+2     :     0.000446
      f-2     :     0.000502
      f+3     :     0.000528
      f-3     :     0.000413


                     *******************************
                     * LOEWDIN POPULATION ANALYSIS *
                     *******************************

----------------------
LOEWDIN ATOMIC CHARGES
----------------------
   0 C :   -0.275078
   1 N :    0.081875
   2 H :    0.126213
   3 H :    0.131565
   4 H :    0.124496
   5 H :    0.139212
   6 H :    0.201731
   7 H :    0.161322
   8 Pb:    4.540687
   9 Cl:   -4.452060
  10 Cl:   -0.481902
  11 Cl:   -0.298061

-------------------------------
LOEWDIN REDUCED ORBITAL CHARGES
-------------------------------
  0 C s       :     2.853379  s :     2.853379
      pz      :     1.028620  p :     3.073617
      px      :     1.042505
      py      :     1.002492
      dz2     :     0.032146  d :     0.309428
      dxz     :     0.080789
      dyz     :     0.080789
      dx2y2   :     0.031570
      dxy     :     0.084133
      f0      :     0.005600  f :     0.038654
      f+1     :     0.004240
      f-1     :     0.006079
      f+2     :     0.004320
      f-2     :     0.007518
      f+3     :     0.005152
      f-3     :     0.005745
  1 N s       :     3.001997  s :     3.001997
      pz      :     1.246102  p :     3.733791
      px      :     1.244047
      py      :     1.243642
      dz2     :     0.019380  d :     0.171516
      dxz     :     0.044300
      dyz     :     0.042777
      dx2y2   :     0.021059
      dxy     :     0.044000
      f0      :     0.001633  f :     0.010822
      f+1     :     0.001291
      f-1     :     0.001582
      f+2     :     0.001207
      f-2     :     0.001965
      f+3     :     0.001430
      f-3     :     0.001713
  2 H s       :     0.809585  s :     0.809585
      pz      :     0.023756  p :     0.064202
      px      :     0.022210
      py      :     0.018237
  3 H s       :     0.804065  s :     0.804065
      pz      :     0.020093  p :     0.064370
      px      :     0.023069
      py      :     0.021208
  4 H s       :     0.811365  s :     0.811365
      pz      :     0.021289  p :     0.064138
      px      :     0.021290
      py      :     0.021560
  5 H s       :     0.708719  s :     0.708719
      pz      :     0.036637  p :     0.152069
      px      :     0.051251
      py      :     0.064180
  6 H s       :     0.698843  s :     0.698843
      pz      :     0.032139  p :     0.099426
      px      :     0.032435
      py      :     0.034852
  7 H s       :     0.711958  s :     0.711958
      pz      :     0.050411  p :     0.126720
      px      :     0.049472
      py      :     0.026838
  8 Pbs       :     2.509563  s :     2.509563
      pz      :     2.085651  p :     6.168863
      px      :     2.134555
      py      :     1.948658
      dz2     :     1.391606  d :     7.106179
      dxz     :     1.411582
      dyz     :     1.453879
      dx2y2   :     1.373973
      dxy     :     1.475139
      f0      :     0.103005  f :     1.674707
      f+1     :     0.149509
      f-1     :     0.257516
      f+2     :     0.407005
      f-2     :     0.360991
      f+3     :     0.176692
      f-3     :     0.219989
  9 Cls       :     4.843976  s :     4.843976
      pz      :     3.702371  p :    11.040605
      px      :     3.670717
      py      :     3.667517
      dz2     :     0.829468  d :     4.517036
      dxz     :     0.885237
      dyz     :     1.127918
      dx2y2   :     0.838076
      dxy     :     0.836337
      f0      :     0.077643  f :     1.050444
      f+1     :     0.139307
      f-1     :     0.110187
      f+2     :     0.203243
      f-2     :     0.186310
      f+3     :     0.173003
      f-3     :     0.160750
 10 Cls       :     5.833919  s :     5.833919
      pz      :     3.886156  p :    11.583598
      px      :     3.857421
      py      :     3.840020
      dz2     :     0.012057  d :     0.060763
      dxz     :     0.010846
      dyz     :     0.009790
      dx2y2   :     0.015029
      dxy     :     0.013041
      f0      :     0.000448  f :     0.003623
      f+1     :     0.000469
      f-1     :     0.000568
      f+2     :     0.000505
      f-2     :     0.000444
      f+3     :     0.000684
      f-3     :     0.000505
 11 Cls       :     5.776561  s :     5.776561
      pz      :     3.747839  p :    11.438490
      px      :     3.874210
      py      :     3.816441
      dz2     :     0.027701  d :     0.078036
      dxz     :     0.013073
      dyz     :     0.013179
      dx2y2   :     0.010486
      dxy     :     0.013597
      f0      :     0.001303  f :     0.004975
      f+1     :     0.000724
      f-1     :     0.000671
      f+2     :     0.000506
      f-2     :     0.000635
      f+3     :     0.000713
      f-3     :     0.000422


                      *****************************
                      * MAYER POPULATION ANALYSIS *
                      *****************************

  NA   - Mulliken gross atomic population
  ZA   - Total nuclear charge
  QA   - Mulliken gross atomic charge
  VA   - Mayer's total valence
  BVA  - Mayer's bonded valence
  FA   - Mayer's free valence

  ATOM       NA         ZA         QA         VA         BVA        FA
  0 C      6.2624     6.0000    -0.2624     3.8693     3.7549     0.1144
  1 N      7.3428     7.0000    -0.3428     3.4564     3.3110     0.1454
  2 H      0.8399     1.0000     0.1601     0.9638     0.9454     0.0184
  3 H      0.8304     1.0000     0.1696     0.9651     0.9470     0.0181
  4 H      0.8431     1.0000     0.1569     0.9642     0.9457     0.0185
  5 H      0.6928     1.0000     0.3072     0.9779     0.9574     0.0206
  6 H      0.7084     1.0000     0.2916     0.8982     0.8792     0.0190
  7 H      0.7190     1.0000     0.2810     1.0099     0.9886     0.0213
  8 Pb    26.1271    22.0000    -4.1271    -6.9606    -7.4127     0.4522
  9 Cl    12.3122    17.0000     4.6878    -7.9684    -8.1455     0.1771
 10 Cl    17.7038    17.0000    -0.7038     0.7493     0.4928     0.2565
 11 Cl    17.6183    17.0000    -0.6183     0.9307     0.6681     0.2627

  Mayer bond orders larger than 0.1
B(  0-C ,  1-N ) :   0.8699 B(  0-C ,  2-H ) :   0.9544 B(  0-C ,  3-H ) :   0.9510 
B(  0-C ,  4-H ) :   0.9539 B(  1-N ,  5-H ) :   0.7493 B(  1-N ,  6-H ) :   0.8849 
B(  1-N ,  7-H ) :   0.7863 B(  5-H , 11-Cl) :   0.2186 B(  7-H , 10-Cl) :   0.1973 
B(  8-Pb,  9-Cl) :  -8.1940 B(  8-Pb, 10-Cl) :   0.3972 B(  8-Pb, 11-Cl) :   0.3576 
B(  9-Cl, 11-Cl) :   0.1008 


                *******************************************
                * RELAXED MP2 DENSITY POPULATION ANALYSIS *
                *******************************************

------------------------------------------------------------------------------
                           ORCA POPULATION ANALYSIS
------------------------------------------------------------------------------
Input electron density              ... PbMACl3_mp2_6.orca.pmp2re
BaseName (.gbw .S,...)              ... PbMACl3_mp2_6.orca

                    ********************************
                    * MULLIKEN POPULATION ANALYSIS *
                    ********************************

-----------------------
MULLIKEN ATOMIC CHARGES
-----------------------
   0 C :   -0.277349
   1 N :   -0.339776
   2 H :    0.163284
   3 H :    0.172646
   4 H :    0.160447
   5 H :    0.298611
   6 H :    0.290434
   7 H :    0.274061
   8 Pb:   -4.161100
   9 Cl:    4.685812
  10 Cl:   -0.679684
  11 Cl:   -0.587387
Sum of atomic charges:    0.0000000

--------------------------------
MULLIKEN REDUCED ORBITAL CHARGES
--------------------------------
  0 C s       :     3.277635  s :     3.277635
      pz      :     0.976249  p :     2.920198
      px      :     1.005010
      py      :     0.938939
      dz2     :     0.009124  d :     0.072502
      dxz     :     0.018489
      dyz     :     0.017294
      dx2y2   :     0.009473
      dxy     :     0.018122
      f0      :     0.000503  f :     0.007013
      f+1     :     0.000675
      f-1     :     0.000903
      f+2     :     0.000880
      f-2     :     0.002687
      f+3     :     0.000661
      f-3     :     0.000704
  1 N s       :     3.429594  s :     3.429594
      pz      :     1.288977  p :     3.850374
      px      :     1.273794
      py      :     1.287602
      dz2     :     0.008010  d :     0.056640
      dxz     :     0.013600
      dyz     :     0.012467
      dx2y2   :     0.008421
      dxy     :     0.014141
      f0      :     0.000268  f :     0.003168
      f+1     :     0.000310
      f-1     :     0.000350
      f+2     :     0.000367
      f-2     :     0.001250
      f+3     :     0.000299
      f-3     :     0.000324
  2 H s       :     0.814338  s :     0.814338
      pz      :     0.008531  p :     0.022378
      px      :     0.007903
      py      :     0.005944
  3 H s       :     0.804835  s :     0.804835
      pz      :     0.007226  p :     0.022519
      px      :     0.007582
      py      :     0.007711
  4 H s       :     0.817189  s :     0.817189
      pz      :     0.006971  p :     0.022363
      px      :     0.007570
      py      :     0.007822
  5 H s       :     0.653971  s :     0.653971
      pz      :     0.010444  p :     0.047418
      px      :     0.016257
      py      :     0.020717
  6 H s       :     0.675964  s :     0.675964
      pz      :     0.011236  p :     0.033602
      px      :     0.010255
      py      :     0.012111
  7 H s       :     0.684501  s :     0.684501
      pz      :     0.016811  p :     0.041437
      px      :     0.016815
      py      :     0.007811
  8 Pbs       :     4.045582  s :     4.045582
      pz      :     3.451543  p :    10.174573
      px      :     2.859184
      py      :     3.863846
      dz2     :     2.370775  d :    10.860609
      dxz     :     2.099137
      dyz     :     2.364992
      dx2y2   :     2.014818
      dxy     :     2.010887
      f0      :     0.061200  f :     1.080335
      f+1     :     0.041585
      f-1     :     0.210428
      f+2     :     0.324945
      f-2     :     0.268634
      f+3     :     0.065549
      f-3     :     0.107994
  9 Cls       :     3.950081  s :     3.950081
      pz      :     2.645212  p :     8.393695
      px      :     3.568031
      py      :     2.180453
      dz2     :    -0.262210  d :     0.311314
      dxz     :     0.093447
      dyz     :     0.488365
      dx2y2   :     0.031274
      dxy     :    -0.039563
      f0      :    -0.035220  f :    -0.340902
      f+1     :    -0.068975
      f-1     :    -0.024039
      f+2     :    -0.045800
      f-2     :    -0.045986
      f+3     :    -0.068492
      f-3     :    -0.052390
 10 Cls       :     5.955223  s :     5.955223
      pz      :     3.907724  p :    11.666839
      px      :     3.875953
      py      :     3.883162
      dz2     :     0.010532  d :     0.054591
      dxz     :     0.010270
      dyz     :     0.009988
      dx2y2   :     0.012895
      dxy     :     0.010905
      f0      :     0.000423  f :     0.003031
      f+1     :     0.000423
      f-1     :     0.000434
      f+2     :     0.000440
      f-2     :     0.000419
      f+3     :     0.000452
      f-3     :     0.000440
 11 Cls       :     5.953884  s :     5.953884
      pz      :     3.800906  p :    11.563133
      px      :     3.904536
      py      :     3.857691
      dz2     :     0.018423  d :     0.066450
      dxz     :     0.012346
      dyz     :     0.014446
      dx2y2   :     0.009660
      dxy     :     0.011575
      f0      :     0.000781  f :     0.003920
      f+1     :     0.000590
      f-1     :     0.000640
      f+2     :     0.000452
      f-2     :     0.000510
      f+3     :     0.000534
      f-3     :     0.000413


                     *******************************
                     * LOEWDIN POPULATION ANALYSIS *
                     *******************************

----------------------
LOEWDIN ATOMIC CHARGES
----------------------
   0 C :   -0.284859
   1 N :    0.077330
   2 H :    0.128060
   3 H :    0.133462
   4 H :    0.126592
   5 H :    0.136813
   6 H :    0.202057
   7 H :    0.159077
   8 Pb:    4.528667
   9 Cl:   -4.462193
  10 Cl:   -0.467416
  11 Cl:   -0.277590

-------------------------------
LOEWDIN REDUCED ORBITAL CHARGES
-------------------------------
  0 C s       :     2.854847  s :     2.854847
      pz      :     1.032969  p :     3.086788
      px      :     1.046833
      py      :     1.006986
      dz2     :     0.032350  d :     0.304813
      dxz     :     0.079247
      dyz     :     0.078953
      dx2y2   :     0.031690
      dxy     :     0.082573
      f0      :     0.005587  f :     0.038412
      f+1     :     0.004210
      f-1     :     0.006050
      f+2     :     0.004289
      f-2     :     0.007423
      f+3     :     0.005117
      f-3     :     0.005736
  1 N s       :     3.004032  s :     3.004032
      pz      :     1.246849  p :     3.735862
      px      :     1.244771
      py      :     1.244242
      dz2     :     0.019691  d :     0.171882
      dxz     :     0.044323
      dyz     :     0.042592
      dx2y2   :     0.021418
      dxy     :     0.043858
      f0      :     0.001653  f :     0.010893
      f+1     :     0.001296
      f-1     :     0.001591
      f+2     :     0.001208
      f-2     :     0.001978
      f+3     :     0.001439
      f-3     :     0.001727
  2 H s       :     0.807655  s :     0.807655
      pz      :     0.023739  p :     0.064286
      px      :     0.022228
      py      :     0.018318
  3 H s       :     0.802118  s :     0.802118
      pz      :     0.020128  p :     0.064419
      px      :     0.023067
      py      :     0.021224
  4 H s       :     0.809134  s :     0.809134
      pz      :     0.021344  p :     0.064274
      px      :     0.021336
      py      :     0.021593
  5 H s       :     0.711607  s :     0.711607
      pz      :     0.036713  p :     0.151579
      px      :     0.051049
      py      :     0.063818
  6 H s       :     0.698582  s :     0.698582
      pz      :     0.032244  p :     0.099361
      px      :     0.032565
      py      :     0.034552
  7 H s       :     0.714174  s :     0.714174
      pz      :     0.050477  p :     0.126749
      px      :     0.049432
      py      :     0.026840
  8 Pbs       :     2.513745  s :     2.513745
      pz      :     2.070306  p :     6.165802
      px      :     2.134330
      py      :     1.961166
      dz2     :     1.384321  d :     7.126498
      dxz     :     1.409956
      dyz     :     1.473950
      dx2y2   :     1.379695
      dxy     :     1.478576
      f0      :     0.103902  f :     1.665288
      f+1     :     0.152273
      f-1     :     0.239550
      f+2     :     0.407712
      f-2     :     0.358326
      f+3     :     0.170323
      f-3     :     0.233202
  9 Cls       :     4.846150  s :     4.846150
      pz      :     3.699736  p :    11.043625
      px      :     3.675123
      py      :     3.668766
      dz2     :     0.825468  d :     4.523847
      dxz     :     0.884614
      dyz     :     1.131565
      dx2y2   :     0.839242
      dxy     :     0.842958
      f0      :     0.077986  f :     1.048571
      f+1     :     0.141050
      f-1     :     0.104766
      f+2     :     0.202751
      f-2     :     0.185299
      f+3     :     0.171451
      f-3     :     0.165269
 10 Cls       :     5.836540  s :     5.836540
      pz      :     3.880571  p :    11.566015
      px      :     3.849962
      py      :     3.835483
      dz2     :     0.012160  d :     0.061225
      dxz     :     0.010918
      dyz     :     0.009759
      dx2y2   :     0.015323
      dxy     :     0.013063
      f0      :     0.000447  f :     0.003636
      f+1     :     0.000470
      f-1     :     0.000572
      f+2     :     0.000507
      f-2     :     0.000442
      f+3     :     0.000686
      f-3     :     0.000512
 11 Cls       :     5.779776  s :     5.779776
      pz      :     3.735726  p :    11.412094
      px      :     3.867245
      py      :     3.809123
      dz2     :     0.028583  d :     0.080662
      dxz     :     0.013330
      dyz     :     0.014146
      dx2y2   :     0.010775
      dxy     :     0.013828
      f0      :     0.001323  f :     0.005058
      f+1     :     0.000728
      f-1     :     0.000695
      f+2     :     0.000520
      f-2     :     0.000644
      f+3     :     0.000724
      f-3     :     0.000423


                      *****************************
                      * MAYER POPULATION ANALYSIS *
                      *****************************

  NA   - Mulliken gross atomic population
  ZA   - Total nuclear charge
  QA   - Mulliken gross atomic charge
  VA   - Mayer's total valence
  BVA  - Mayer's bonded valence
  FA   - Mayer's free valence

  ATOM       NA         ZA         QA         VA         BVA        FA
  0 C      6.2773     6.0000    -0.2773     3.8631     3.7485     0.1145
  1 N      7.3398     7.0000    -0.3398     3.4636     3.3186     0.1449
  2 H      0.8367     1.0000     0.1633     0.9631     0.9448     0.0183
  3 H      0.8274     1.0000     0.1726     0.9650     0.9470     0.0179
  4 H      0.8396     1.0000     0.1604     0.9645     0.9465     0.0180
  5 H      0.7014     1.0000     0.2986     0.9849     0.9647     0.0202
  6 H      0.7096     1.0000     0.2904     0.9018     0.8844     0.0174
  7 H      0.7259     1.0000     0.2741     1.0177     0.9965     0.0212
  8 Pb    26.1611    22.0000    -4.1611    -6.8393    -7.2384     0.3992
  9 Cl    12.3142    17.0000     4.6858    -7.8594    -8.0185     0.1591
 10 Cl    17.6797    17.0000    -0.6797     0.7885     0.5335     0.2550
 11 Cl    17.5874    17.0000    -0.5874     0.9916     0.7315     0.2601

  Mayer bond orders larger than 0.1
B(  0-C ,  1-N ) :   0.8765 B(  0-C ,  2-H ) :   0.9516 B(  0-C ,  3-H ) :   0.9480 
B(  0-C ,  4-H ) :   0.9506 B(  1-N ,  5-H ) :   0.7458 B(  1-N ,  6-H ) :   0.8814 
B(  1-N ,  7-H ) :   0.7817 B(  5-H , 11-Cl) :   0.2261 B(  7-H , 10-Cl) :   0.2080 
B(  8-Pb,  9-Cl) :  -8.0900 B(  8-Pb, 10-Cl) :   0.4328 B(  8-Pb, 11-Cl) :   0.3788 
B(  9-Cl, 11-Cl) :   0.1297 


-------
TIMINGS
-------

Total time                : 1335.714 sec
Integral trafo            :    3.114 sec (  0.2%)
I/O of integrals          :    0.135 sec (  0.0%)
K(i,j) Operators          :   10.704 sec (  0.8%)
T(i,j) pair energies      :    1.633 sec (  0.1%)
V-calculation             :    0.015 sec (  0.0%)
V**(-1/2)                 :    0.036 sec (  0.0%)
Gamma(ia|P)               :   10.287 sec (  0.8%)
Gamma-Trafo               :    1.397 sec (  0.1%)
D(virtual)                :    4.498 sec (  0.3%)
D(internal)               :    5.201 sec (  0.4%)
W(virtual)                :    9.016 sec (  0.7%)
W(internal)               :   17.240 sec (  1.3%)
L(virtual)                :    7.192 sec (  0.5%)
L(internal)               :    0.325 sec (  0.0%)
G(D)                      :   19.717 sec (  1.5%)
G(Z)                      :   19.949 sec (  1.5%)
Z-Vector Solution         : 1057.741 sec ( 79.2%)
Z-Vector Solution         : 1057.741 sec ( 79.2%)
3-Index Derivative 
+ Separable RIJ part      :    5.647 sec (  0.4%)
2-Index Derivative 
+ Separable RIJ part      :    0.042 sec (  0.0%)
Separable Gradient (COSX) :  158.789 sec ( 11.9%)


---------------------------------------
MP2 TOTAL ENERGY:    -1477.981833531 Eh
---------------------------------------

The final MP2 gradient
  0:  -0.00463617   0.00123575   0.00185445
  1:  -0.00547021   0.00130325   0.01612388
  2:   0.00305472  -0.00225135   0.00251271
  3:  -0.00162676   0.00391101   0.00357752
  4:   0.00261909   0.00208716  -0.00295847
  5:   0.00125595   0.00351672  -0.00302073
  6:   0.00252130  -0.01432909  -0.01554651
  7:   0.00478302  -0.00161703   0.00133999
  8: -604.13337254 277.27620118 -242.34903999
  9: 604.13054717 -277.26264807 242.36074445
 10:  -0.00509202  -0.00934894  -0.00510432
 11:   0.00548942   0.00156568  -0.00843828

-----------------------------------
NORM OF THE MP2 GRADIENT: 1000.589479
-----------------------------------

Entering the calculation of the dispersion correction...

Checking the input atom types...

Done


-------------------------------------------------------------------------------
                          DFT DISPERSION CORRECTION                            
                                                                               
                                DFTD3 V2.1  Rev 6                               
                          USING Becke-Johnson damping                          
-------------------------------------------------------------------------------
The B2PLYP functional is recognized
Active option DFTDOPT                   ...         4   

molecular C6(AA) [au] = 4876.730476 


            DFT-D V3
 parameters
 s6 scaling factor         :     0.6400 
 a1 scaling factor         :     0.3065 
 s8 scaling factor         :     0.9147 
 a2 scaling factor         :     5.0570 
 ad hoc parameters k1-k3   :    16.0000     1.3333    -4.0000 

 Edisp/kcal,au: -9.352189568361  -0.014903661151 
 E6   /kcal   :  -4.249488512 
 E8   /kcal   :  -5.102701057 
 % E8         :  54.561565709 

-------------------------   ----------------
Dispersion correction           -0.014903661
-------------------------   ----------------


-------------------------   --------------------
FINAL SINGLE POINT ENERGY     -1477.996737191853
-------------------------   --------------------


                            ***************************************
                            *     ORCA property calculations      *
                            ***************************************


  WARNING: The energy has been calculated at the MP2 level but the densities
           used in the property calculations are still SCF densities
           MP2 response densities have not been calculated 
           use %mp2 Density relaxed end
           or  %mp2 Density unrelaxed end

                                    ---------------------
                                    Active property flags
                                    ---------------------
   (+) Dipole Moment


------------------------------------------------------------------------------
                       ORCA ELECTRIC PROPERTIES CALCULATION
------------------------------------------------------------------------------

Dipole Moment Calculation                       ... on
Quadrupole Moment Calculation                   ... off
Polarizability Calculation                      ... off
GBWName                                         ... PbMACl3_mp2_6.orca.gbw
Electron density file                           ... PbMACl3_mp2_6.orca.scfp.tmp

-------------
DIPOLE MOMENT
-------------
                                X             Y             Z
Electronic contribution:      2.43056     -99.31723     -74.80586
Nuclear contribution   :      0.37364      99.85676      75.48845
                        -----------------------------------------
Total Dipole Moment    :      2.80420       0.53953       0.68258
                        -----------------------------------------
Magnitude (a.u.)       :      2.93608
Magnitude (Debye)      :      7.46292


                         *** MP2 UNRELAXED DENSITY ***

------------------------------------------------------------------------------
                       ORCA ELECTRIC PROPERTIES CALCULATION
------------------------------------------------------------------------------

Dipole Moment Calculation                       ... on
Quadrupole Moment Calculation                   ... off
Polarizability Calculation                      ... off
GBWName                                         ... PbMACl3_mp2_6.orca.gbw
Electron density file                           ... PbMACl3_mp2_6.orca.pmp2ur

-------------
DIPOLE MOMENT
-------------
                                X             Y             Z
Electronic contribution:      2.42210     -99.31483     -74.78728
Nuclear contribution   :      0.37364      99.85676      75.48845
                        -----------------------------------------
Total Dipole Moment    :      2.79574       0.54193       0.70117
                        -----------------------------------------
Magnitude (a.u.)       :      2.93283
Magnitude (Debye)      :      7.45467


                           *** MP2 RELAXED DENSITY ***

------------------------------------------------------------------------------
                       ORCA ELECTRIC PROPERTIES CALCULATION
------------------------------------------------------------------------------

Dipole Moment Calculation                       ... on
Quadrupole Moment Calculation                   ... off
Polarizability Calculation                      ... off
GBWName                                         ... PbMACl3_mp2_6.orca.gbw
Electron density file                           ... PbMACl3_mp2_6.orca.pmp2re

-------------
DIPOLE MOMENT
-------------
                                X             Y             Z
Electronic contribution:      2.35977     -99.35597     -74.75000
Nuclear contribution   :      0.37364      99.85676      75.48845
                        -----------------------------------------
Total Dipole Moment    :      2.73342       0.50079       0.73845
                        -----------------------------------------
Magnitude (a.u.)       :      2.87536
Magnitude (Debye)      :      7.30858


Timings for individual modules:

Sum of individual times         ...     2103.123 sec (=  35.052 min)
GTO integral calculation        ...        4.897 sec (=   0.082 min)   0.2 %
SCF iterations                  ...      761.283 sec (=  12.688 min)  36.2 %
MP2 module                      ...     1336.942 sec (=  22.282 min)  63.6 %
                             ****ORCA TERMINATED NORMALLY****
TOTAL RUN TIME: 0 days 0 hours 35 minutes 4 seconds 726 msec
