
                                 *****************
                                 * O   R   C   A *
                                 *****************

           --- An Ab Initio, DFT and Semiempirical electronic structure package ---

                  #######################################################
                  #                        -***-                        #
                  #  Department of molecular theory and spectroscopy    #
                  #              Directorship: Frank Neese              #
                  # Max Planck Institute for Chemical Energy Conversion #
                  #                  D-45470 Muelheim/Ruhr              #
                  #                       Germany                       #
                  #                                                     #
                  #                  All rights reserved                #
                  #                        -***-                        #
                  #######################################################


                         Program Version 3.0.3 - RELEASE   -


 With contributions from (in alphabetic order):
   Ute Becker             : Parallelization
   Dmytro Bykov           : SCF Hessian
   Dmitry Ganyushin       : Spin-Orbit,Spin-Spin,Magnetic field MRCI
   Andreas Hansen         : Spin unrestricted coupled pair/coupled cluster methods
   Dimitrios Liakos       : Extrapolation schemes; parallel MDCI
   Robert Izsak           : Overlap fitted RIJCOSX, COSX-SCS-MP3
   Christian Kollmar      : KDIIS, OOCD, Brueckner-CCSD(T), CCSD density
   Simone Kossmann        : Meta GGA functionals, TD-DFT gradient, OOMP2, MP2 Hessian
   Taras Petrenko         : DFT Hessian,TD-DFT gradient, ASA and ECA modules, normal mode analysis, Resonance Raman, ABS, FL, XAS/XES, NRVS
   Christoph Reimann      : Effective Core Potentials
   Michael Roemelt        : Restricted open shell CIS
   Christoph Riplinger    : Improved optimizer, TS searches, QM/MM, DLPNO-CCSD
   Barbara Sandhoefer     : DKH picture change effects
   Igor Schapiro          : Molecular dynamics
   Kantharuban Sivalingam : CASSCF convergence, NEVPT2
   Boris Wezisla          : Elementary symmetry handling
   Frank Wennmohs         : Technical directorship


 We gratefully acknowledge several colleagues who have allowed us to
 interface, adapt or use parts of their codes:
   Stefan Grimme, W. Hujo, H. Kruse, T. Risthaus : VdW corrections, initial TS optimization,
                                                   DFT functionals, gCP
   Ed Valeev                                     : LibInt (2-el integral package), F12 methods
   Garnet Chan, S. Sharma, R. Olivares           : DMRG
   Ulf Ekstrom                                   : XCFun DFT Library
   Mihaly Kallay                                 : mrcc  (arbitrary order and MRCC methods)
   Andreas Klamt, Michael Diedenhofen            : otool_cosmo (COSMO solvation model)
   Frank Weinhold                                : gennbo (NPA and NBO analysis)
   Christopher J. Cramer and Donald G. Truhlar   : smd solvation model


 Your calculation uses the libint2 library for the computation of 2-el integrals
 For citations please refer to: http://libint.valeyev.net

 This ORCA versions uses:
   CBLAS   interface :  Fast vector & matrix operations
   LAPACKE interface :  Fast linear algebra routines
   SCALAPACK package :  Parallel linear algebra routines


Your calculation utilizes the basis: Ahlrichs-TZV
Cite in your paper:
H - Kr: A. Schaefer, H. Horn and R. Ahlrichs, J. Chem. Phys. 97, 2571 (1992).

The def2-TZV basis will be loaded
Cite in your paper:
 	F. Weigend, R. Ahlrichs, Phys. Chem. Chem. Phys. 2005, 7, 3297.

Your calculation utilizes the atom-pairwise dispersion correction
with the Becke-Johnson damping scheme (D3BJ)
Cite in your paper:
S.Grimme, S.Ehrlich, L.Goerigk, J Comput Chem, (2011), 32, 1456–1465 
S.Grimme, J.Antony, S.Ehrlich and H.Krieg, J.Chem.Phys., 132, (2010), 154104 
   

================================================================================
                                        WARNINGS
                       Please study these warnings very carefully!
================================================================================

WARNING: The RI method has been chosen with no auxiliary basis (AUX or GTOAUX in BASIS block)
        Standard TZV/J expansion basis used (GTOAUX=TZV_J)

Now building the actual basis set
cite the ECPs for Pb [SD(60,MDF)] as follows:
  B. Metz, H. Stoll, M. Dolg, J. Chem. Phys. 113, 2563 (2000).

ECP parameters for Pb [SD(60,MDF)] have been obtained from:
  pseudopotential library of the Stuttgart/Cologne group
  http://www.theochem.uni-stuttgart.de/pseudopotentials/

cite the ECP basis sets for Pb [DEF2-TZVP] as follows:
  F. Weigend, R. Ahlrichs; Phys. Chem. Chem. Phys. 7, 3297(2005).

ECP basis sets for Pb [DEF2-TZVP] have been obtained from:
  Turbomole basis set library
  ftp://ftp.chemie.uni-karlsruhe.de/pub/basen/



INFO   : the flag for use of LIBINT has been found!

================================================================================
                                       INPUT FILE
================================================================================
NAME = PbMACl3_mp2_13.orca
|  1> ! RIJCOSX RI-B2PLYP D3BJ def2-TZVP ECP{def2-TZVP} TIGHTSCF Grid5 FinalGrid6 SlowConv MORead
|  2> %method
|  3>  RunTyp Gradient
|  4>  end
|  5> %maxcore 1000
|  6> %moinp "previous.gbw"
|  7> *xyz 0 1
|  8> C 2.905719 3.576013 2.873338
|  9> N 2.134625 2.614408 2.046990
| 10> H 3.548796 3.021424 3.560517
| 11> H 2.209179 4.197444 3.440826
| 12> H 3.515705 4.204875 2.220874
| 13> H 1.516852 1.975028 2.601630
| 14> H 2.717740 1.973704 1.464858
| 15> H 1.486857 3.059076 1.361735
| 16> Pb -0.353845 0.131547 0.209487
| 17> Cl 3.101655 0.268387 0.089874
| 18> Cl -2.268480 2.735046 -0.108798
| 19> Cl 2.485334 0.320768 2.851419
| 20> *
| 21> 
| 22>                          ****END OF INPUT****
================================================================================

                     *******************************
                     * Energy+Gradient Calculation *
                     *******************************

---------------------------------
CARTESIAN COORDINATES (ANGSTROEM)
---------------------------------
  C      2.905719    3.576013    2.873338
  N      2.134625    2.614408    2.046990
  H      3.548796    3.021424    3.560517
  H      2.209179    4.197444    3.440826
  H      3.515705    4.204875    2.220874
  H      1.516852    1.975028    2.601630
  H      2.717740    1.973704    1.464858
  H      1.486857    3.059076    1.361735
  Pb    -0.353845    0.131547    0.209487
  Cl     3.101655    0.268387    0.089874
  Cl    -2.268480    2.735046   -0.108798
  Cl     2.485334    0.320768    2.851419

----------------------------
CARTESIAN COORDINATES (A.U.)
----------------------------
  NO LB      ZA    FRAG    MASS        X           Y           Z
   0 C     6.0000    0    12.011          5.491013132131525          6.757685221342137          5.429821910189021
   1 N     7.0000    0    14.007          4.033856648621652          4.940515122332791          3.868250498875463
   2 H     1.0000    0     1.008          6.706252545155202          5.709663894456884          6.728402025170893
   3 H     1.0000    0     1.008          4.174743290810016          7.932019622470954          6.502218814475724
   4 H     1.0000    0     1.008          6.643719617657614          7.946062177372124          4.196843637946225
   5 H     1.0000    0     1.008          2.866434865690719          3.732262026826222          4.916368201793546
   6 H     1.0000    0     1.008          5.135784303203143          3.729760029424910          2.768180445083617
   7 H     1.0000    0     1.008          2.809752530303751          5.780815862851287          2.573306216975256
   8 Pb   22.0000*   0   207.200  -0.668670143857365  0.248587803738939  0.395873058616761
   9 Cl   17.0000    0    35.453          5.861278511907519          0.507177927904723          0.169837246560039
  10 Cl   17.0000    0    35.453         -4.286805940277681          5.168487903676784         -0.205598423918364
  11 Cl   17.0000    0    35.453          4.696600611323040          0.606163672525652          5.388401003059601
* core charge reduced due to ECP

--------------------------------
INTERNAL COORDINATES (ANGSTROEM)
--------------------------------
 C      0   0   0   0.000000     0.000     0.000
 N      1   0   0   1.483955     0.000     0.000
 H      1   2   0   1.092397   109.099     0.000
 H      1   2   3   1.092423   109.061   240.173
 H      1   2   3   1.092364   109.305   120.114
 H      2   1   3   1.047891   114.015    60.210
 H      2   1   3   1.043744   114.712   299.789
 H      2   1   3   1.042549   114.361   179.707
 Pb     6   2   1   3.552503   105.704   174.112
 Cl     7   2   1   2.223978   155.777   173.356
 Cl     9   6   2   3.247359    87.733   280.952
 Cl     6   2   1   1.933114   107.168   263.281

---------------------------
INTERNAL COORDINATES (A.U.)
---------------------------
 C      0   0   0   0.000000     0.000     0.000
 N      1   0   0   2.804268     0.000     0.000
 H      1   2   0   2.064332   109.099     0.000
 H      1   2   3   2.064379   109.061   240.173
 H      1   2   3   2.064269   109.305   120.114
 H      2   1   3   1.980227   114.015    60.210
 H      2   1   3   1.972391   114.712   299.789
 H      2   1   3   1.970131   114.361   179.707
 Pb     6   2   1   6.713258   105.704   174.112
 Cl     7   2   1   4.202709   155.777   173.356
 Cl     9   6   2   6.136619    87.733   280.952
 Cl     6   2   1   3.653055   107.168   263.281

---------------------
BASIS SET INFORMATION
---------------------
There are 5 groups of distinct atoms

 Group   1 Type C   : 11s6p2d1f contracted to 5s3p2d1f pattern {62111/411/11/1}
 Group   2 Type N   : 11s6p2d1f contracted to 5s3p2d1f pattern {62111/411/11/1}
 Group   3 Type H   : 5s1p contracted to 3s1p pattern {311/1}
 Group   4 Type Pb  : 10s9p8d2f contracted to 6s5p3d2f pattern {421111/33111/611/11}
 Group   5 Type Cl  : 14s9p3d1f contracted to 5s5p2d1f pattern {73211/51111/21/1}

Atom   0C    basis set group =>   1
Atom   1N    basis set group =>   2
Atom   2H    basis set group =>   3
Atom   3H    basis set group =>   3
Atom   4H    basis set group =>   3
Atom   5H    basis set group =>   3
Atom   6H    basis set group =>   3
Atom   7H    basis set group =>   3
Atom   8Pb   basis set group =>   4
Atom   9Cl   basis set group =>   5
Atom  10Cl   basis set group =>   5
Atom  11Cl   basis set group =>   5
-------------------------------
AUXILIARY BASIS SET INFORMATION
-------------------------------
There are 5 groups of distinct atoms

 Group   1 Type C   : 12s5p4d2f1g contracted to 6s4p3d1f1g pattern {711111/2111/211/2/1}
 Group   2 Type N   : 12s5p4d2f1g contracted to 6s4p3d1f1g pattern {711111/2111/211/2/1}
 Group   3 Type H   : 5s2p1d contracted to 3s1p1d pattern {311/2/1}
 Group   4 Type Pb  : 31s12p8d6f3g contracted to 31s12p8d6f3g pattern {1111111111111111111111111111111/111111111111/11111111/111111/111}
 Group   5 Type Cl  : 14s5p5d2f1g contracted to 8s4p3d1f1g pattern {71111111/2111/311/2/1}

Atom   0C    basis set group =>   1
Atom   1N    basis set group =>   2
Atom   2H    basis set group =>   3
Atom   3H    basis set group =>   3
Atom   4H    basis set group =>   3
Atom   5H    basis set group =>   3
Atom   6H    basis set group =>   3
Atom   7H    basis set group =>   3
Atom   8Pb   basis set group =>   4
Atom   9Cl   basis set group =>   5
Atom  10Cl   basis set group =>   5
Atom  11Cl   basis set group =>   5

-------------------------
ECP PARAMETER INFORMATION
-------------------------

 Group 1, Type Pb ECP SD(60,MDF) (replacing 60 core electrons, lmax=5)

Atom   8Pb   ECP group =>   1


------------------------------------------------------------------------------
                           ORCA GTO INTEGRAL CALCULATION
                           -- RI-GTO INTEGRALS CHOSEN --
------------------------------------------------------------------------------

                         BASIS SET STATISTICS AND STARTUP INFO

Gaussian basis set:
 # of primitive gaussian shells          ...  186
 # of primitive gaussian functions       ...  420
 # of contracted shells                  ...  101
 # of contracted basis functions         ...  259
 Highest angular momentum                ...    3
 Maximum contraction depth               ...    7
Auxiliary gaussian basis set:
 # of primitive gaussian shells          ...  237
 # of primitive gaussian functions       ...  643
 # of contracted shells                  ...  171
 # of contracted aux-basis functions     ...  493
 Highest angular momentum                ...    4
 Maximum contraction depth               ...    7
Ratio of auxiliary to basis functions    ...  1.90
Integral package used                  ... LIBINT
 One Electron integrals                  
   ECP integrals                         ... done
 Ordering auxiliary basis shells         ... done
 Integral threshhold             Thresh  ...  2.500e-11
 Primitive cut-off               TCut    ...  2.500e-12
 Pre-screening matrix                    ... done
 Shell pair data                         ... 
 Ordering of the shell pairs             ... done (   0.001 sec) 4155 of 5151 pairs
 Determination of significant pairs      ... done (   0.000 sec)
 Creation of shell pair data             ... done (   0.001 sec)
 Storage of shell pair data              ... done (   0.001 sec)
 Shell pair data done in (   0.003 sec)
 Computing two index integrals           ... done
 Cholesky decomposition of the V-matrix  ... done


Timings:
 Total evaluation time                   ...   0.786 sec (  0.013 min)
 One electron matrix time                ...   0.360 sec (  0.006 min) = 45.9%
 Schwartz matrix evaluation time         ...   0.267 sec (  0.004 min) = 34.0%
 Two index repulsion integral time       ...   0.009 sec (  0.000 min) =  1.1%
 Cholesky decomposition of V             ...   0.116 sec (  0.002 min) = 14.7%
 Three index repulsion integral time     ...   0.000 sec (  0.000 min) =  0.0%

-------------------------------------------------------------------------------
                                 ORCA SCF
-------------------------------------------------------------------------------

------------
SCF SETTINGS
------------
Hamiltonian:
 Density Functional     Method          .... DFT(GTOs)
 Exchange Functional    Exchange        .... B88
   X-Alpha parameter    XAlpha          ....  0.666667
   Becke's b parameter  XBeta           ....  0.004200
 Correlation Functional Correlation     .... LYP
 LDA part of GGA corr.  LDAOpt          .... VWN-3
 Gradients option       PostSCFGGA      .... off
 Hybrid DFT is turned on
   Fraction HF Exchange ScalHFX         ....  0.530000
   Scaling of DF-GGA-X  ScalDFX         ....  0.470000
   Scaling of DF-GGA-C  ScalDFC         ....  0.730000
   Scaling of DF-LDA-C  ScalLDAC        ....  0.730000
   Perturbative correction              ....  0.270000
 RI-approximation to the Coulomb term is turned on
   Number of auxiliary basis functions  .... 493
   RIJ-COSX (HFX calculated with COS-X)).... on


General Settings:
 Integral files         IntName         .... PbMACl3_mp2_13.orca
 Hartree-Fock type      HFTyp           .... RHF
 Total Charge           Charge          ....    0
 Multiplicity           Mult            ....    1
 Number of Electrons    NEL             ....   92
 Basis Dimension        Dim             ....  259
 Nuclear Repulsion      ENuc            ....    510.7957481372 Eh

Convergence Acceleration:
 DIIS                   CNVDIIS         .... on
   Start iteration      DIISMaxIt       ....     0
   Startup error        DIISStart       ....  0.200000
   # of expansion vecs  DIISMaxEq       ....     5
   Bias factor          DIISBfac        ....   1.050
   Max. coefficient     DIISMaxC        ....  10.000
 Newton-Raphson         CNVNR           .... off
 SOSCF                  CNVSOSCF        .... on
   Start iteration      SOSCFMaxIt      ....   150
   Startup grad/error   SOSCFStart      ....  0.001000
 Level Shifting         CNVShift        .... on
   Level shift para.    LevelShift      ....    0.2500
   Turn off err/grad.   ShiftErr        ....    0.0000
 Zerner damping         CNVZerner       .... off
 Static damping         CNVDamp         .... on
   Fraction old density DampFac         ....    0.8500
   Max. Damping (<1)    DampMax         ....    0.9800
   Min. Damping (>=0)   DampMin         ....    0.0000
   Turn off err/grad.   DampErr         ....    0.0300
 Fernandez-Rico         CNVRico         .... off

SCF Procedure:
 Maximum # iterations   MaxIter         ....   125
 SCF integral mode      SCFMode         .... Direct
   Integral package                     .... LIBINT
 Reset frequeny         DirectResetFreq ....    20
 Integral Threshold     Thresh          ....  2.500e-11 Eh
 Primitive CutOff       TCut            ....  2.500e-12 Eh

Convergence Tolerance:
 Convergence Check Mode ConvCheckMode   .... Total+1el-Energy
 Energy Change          TolE            ....  1.000e-08 Eh
 1-El. energy change                    ....  1.000e-05 Eh
 Orbital Gradient       TolG            ....  1.000e-05
 Orbital Rotation angle TolX            ....  1.000e-05
 DIIS Error             TolErr          ....  5.000e-07


Diagonalization of the overlap matrix:
Smallest eigenvalue                        ... 1.066e-03
Time for diagonalization                   ...    0.209 sec
Threshold for overlap eigenvalues          ... 1.000e-08
Number of eigenvalues below threshold      ... 0
Time for construction of square roots      ...    0.009 sec
Total time needed                          ...    0.219 sec

---------------------
INITIAL GUESS: MOREAD
---------------------
Guess MOs are being read from file: previous.gbw
Input Geometry matches current geometry (good)
Input basis set matches current basis set (good)
MOs were renormalized
MOs were reorthogonalized (Schmidt)
                      ------------------
                      INITIAL GUESS DONE (   0.2 sec)
                      ------------------
-------------------
DFT GRID GENERATION
-------------------

General Integration Accuracy     IntAcc      ...  5.010
Radial Grid Type                 RadialGrid  ... Gauss-Chebyshev
Angular Grid (max. acc.)         AngularGrid ... Lebedev-434
Angular grid pruning method      GridPruning ... 3 (G Style)
Weight generation scheme         WeightScheme... Becke
Basis function cutoff            BFCut       ...    1.0000e-11
Integration weight cutoff        WCut        ...    1.0000e-14
Grids for H and He will be reduced by one unit

# of grid points (after initial pruning)     ... 115882 (   0.0 sec)
# of grid points (after weights+screening)   ... 109306 (   0.3 sec)
nearest neighbour list constructed           ...    0.0 sec
Grid point re-assignment to atoms done       ...    0.0 sec
Grid point division into batches done        ...    1.2 sec
Reduced shell lists constructed in    2.9 sec

Total number of grid points                  ...   109306
Total number of batches                      ...     1716
Average number of points per batch           ...       63
Average number of grid points per atom       ...     9109
Average number of shells per batch           ...    50.77 (50.27%)
Average number of basis functions per batch  ...   131.12 (50.63%)
Average number of large shells per batch     ...    37.97 (74.78%)
Average number of large basis fcns per batch ...    96.79 (73.82%)
Maximum spatial batch extension              ...  32.24, 37.95, 32.13 au
Average spatial batch extension              ...   2.43,  2.49,  2.50 au

Time for grid setup =    3.270 sec

--------------------
COSX GRID GENERATION
--------------------

General Integration Accuracy     IntAcc      ...  3.340
Radial Grid Type                 RadialGrid  ... Gauss-Chebyshev
Angular Grid (max. acc.)         AngularGrid ... Lebedev-50
Angular grid pruning method      GridPruning ... 3 (G Style)
Weight generation scheme         WeightScheme... Becke
Basis function cutoff            BFCut       ...    1.0000e-11
Integration weight cutoff        WCut        ...    1.0000e-14
Grids for H and He will be reduced by one unit

# of grid points (after initial pruning)     ...   6578 (   0.0 sec)
# of grid points (after weights+screening)   ...   6225 (   0.0 sec)
nearest neighbour list constructed           ...    0.0 sec
Grid point re-assignment to atoms done       ...    0.0 sec
Grid point division into batches done        ...    0.0 sec
Reduced shell lists constructed in    0.1 sec

Total number of grid points                  ...     6225
Total number of batches                      ...      104
Average number of points per batch           ...       59
Average number of grid points per atom       ...      519
Average number of shells per batch           ...    61.96 (61.35%)
Average number of basis functions per batch  ...   163.03 (62.95%)
Average number of large shells per batch     ...    47.61 (76.84%)
Average number of large basis fcns per batch ...   124.03 (76.08%)
Maximum spatial batch extension              ...  25.58, 30.05, 44.74 au
Average spatial batch extension              ...   6.23,  6.67,  6.98 au

Overlap Fitting                  UseSFitting ... on
Constructing numerical overlap ... done (      0.1 sec)
Inverting numerical overlap    ... done (      0.0 sec)
Obtaining analytic overlap     ... done (      0.0 sec)
Final contraction and storage  ... done (      0.0 sec)


General Integration Accuracy     IntAcc      ...  3.670
Radial Grid Type                 RadialGrid  ... Gauss-Chebyshev
Angular Grid (max. acc.)         AngularGrid ... Lebedev-50
Angular grid pruning method      GridPruning ... 3 (G Style)
Weight generation scheme         WeightScheme... Becke
Basis function cutoff            BFCut       ...    1.0000e-11
Integration weight cutoff        WCut        ...    1.0000e-14
Grids for H and He will be reduced by one unit

# of grid points (after initial pruning)     ...   8124 (   0.0 sec)
# of grid points (after weights+screening)   ...   7666 (   0.0 sec)
nearest neighbour list constructed           ...    0.0 sec
Grid point re-assignment to atoms done       ...    0.0 sec
Grid point division into batches done        ...    0.0 sec
Reduced shell lists constructed in    0.1 sec

Total number of grid points                  ...     7666
Total number of batches                      ...      124
Average number of points per batch           ...       61
Average number of grid points per atom       ...      639
Average number of shells per batch           ...    61.44 (60.83%)
Average number of basis functions per batch  ...   161.36 (62.30%)
Average number of large shells per batch     ...    47.21 (76.84%)
Average number of large basis fcns per batch ...   122.23 (75.75%)
Maximum spatial batch extension              ...  26.20, 31.82, 46.50 au
Average spatial batch extension              ...   5.67,  6.03,  6.43 au

Overlap Fitting                  UseSFitting ... on
Constructing numerical overlap ... done (      0.1 sec)
Inverting numerical overlap    ... done (      0.0 sec)
Obtaining analytic overlap     ... done (      0.0 sec)
Final contraction and storage  ... done (      0.0 sec)


General Integration Accuracy     IntAcc      ...  4.010
Radial Grid Type                 RadialGrid  ... Gauss-Chebyshev
Angular Grid (max. acc.)         AngularGrid ... Lebedev-110
Angular grid pruning method      GridPruning ... 3 (G Style)
Weight generation scheme         WeightScheme... Becke
Basis function cutoff            BFCut       ...    1.0000e-11
Integration weight cutoff        WCut        ...    1.0000e-14
Grids for H and He will be reduced by one unit

# of grid points (after initial pruning)     ...  15170 (   0.0 sec)
# of grid points (after weights+screening)   ...  14446 (   0.0 sec)
nearest neighbour list constructed           ...    0.0 sec
Grid point re-assignment to atoms done       ...    0.0 sec
Grid point division into batches done        ...    0.0 sec
Reduced shell lists constructed in    0.3 sec

Total number of grid points                  ...    14446
Total number of batches                      ...      231
Average number of points per batch           ...       62
Average number of grid points per atom       ...     1204
Average number of shells per batch           ...    57.42 (56.85%)
Average number of basis functions per batch  ...   150.36 (58.05%)
Average number of large shells per batch     ...    43.59 (75.92%)
Average number of large basis fcns per batch ...   112.96 (75.13%)
Maximum spatial batch extension              ...  29.88, 33.25, 30.70 au
Average spatial batch extension              ...   5.00,  5.05,  5.15 au

Overlap Fitting                  UseSFitting ... on
Constructing numerical overlap ... done (      0.2 sec)
Inverting numerical overlap    ... done (      0.0 sec)
Obtaining analytic overlap     ... done (      0.0 sec)
Final contraction and storage  ... done (      0.0 sec)

Time for X-Grid setup             =    1.133 sec
--------------
SCF ITERATIONS
--------------
ITER       Energy         Delta-E        Max-DP      RMS-DP      [F,P]     Damp
               ***  Starting incremental Fock matrix formation  ***
  0  -1668.7976750612   0.000000000000 0.03660385  0.00025460  0.0683537 0.8500
  1  -1668.8015735829  -0.003898521687 0.03284626  0.00025318  0.0582106 0.8500
                               ***Turning on DIIS***
  2  -1668.8052328165  -0.003659233576 0.02764725  0.00022442  0.0495714 0.8500
  3  -1668.8083374828  -0.003104666363 0.02248860  0.00018718  0.0422069 0.8500
  4  -1668.8109311896  -0.002593706799 0.01867867  0.00015972  0.0358873 0.8500
  5  -1668.8130994252  -0.002168235606 0.01620865  0.00014097  0.0304817 0.8500
  6  -1668.8149443534  -0.001844928184 0.09443109  0.00083337  0.0258913 0.0000
  7  -1668.8262240651  -0.011279711687 0.00494060  0.00008288  0.0046554 0.0000
  8  -1668.8264505857  -0.000226520594 0.00444674  0.00006487  0.0042102 0.0000
  9  -1668.8266240635  -0.000173477747 0.00631905  0.00008900  0.0039916 0.0000
 10  -1668.8268386983  -0.000214634836 0.00598453  0.00008139  0.0037148 0.0000
 11  -1668.8270153973  -0.000176698970 0.00629374  0.00008374  0.0033979 0.0000
 12  -1668.8271748170  -0.000159419728 0.00556024  0.00007234  0.0030706 0.0000
 13  -1668.8272982482  -0.000123431247 0.00688627  0.00008882  0.0027590 0.0000
 14  -1668.8274245613  -0.000126313071 0.00483738  0.00006161  0.0023734 0.0000
 15  -1668.8275040509  -0.000079489579 0.00639760  0.00008070  0.0020871 0.0000
 16  -1668.8275861537  -0.000082102845 0.00390528  0.00004906  0.0017013 0.0000
 17  -1668.8276323602  -0.000046206474 0.00532543  0.00006610  0.0014597 0.0000
 18  -1668.8276786126  -0.000046252381 0.00369693  0.00004589  0.0011245 0.0000
 19  -1668.8277061885  -0.000027575861 0.00358214  0.00004438  0.0008867 0.0000
               *** Restarting incremental Fock matrix formation ***
                                   *** Resetting DIIS ***
                      *** Initiating the SOSCF procedure ***
                           *** Shutting down DIIS ***
                      *** Re-Reading the Fockian *** 
                      *** Removing any level shift *** 
ITER      Energy       Delta-E        Grad      Rot      Max-DP    RMS-DP
 20  -1668.82773508  -0.0000288874  0.000604  0.000604  0.000667  0.000012
               *** Restarting incremental Fock matrix formation ***
 21  -1668.82774043  -0.0000053562  0.000505  0.005014  0.002256  0.000030
 22  -1668.82774998  -0.0000095478  0.000378  0.014978  0.006784  0.000087
 23  -1668.82776227  -0.0000122855  0.000187  0.002150  0.001161  0.000018
 24  -1668.82776295  -0.0000006895  0.000124  0.000903  0.000790  0.000009
 25  -1668.82776406  -0.0000011067  0.000025  0.000132  0.000132  0.000002
 26  -1668.82776412  -0.0000000551  0.000017  0.000133  0.000067  0.000001
 27  -1668.82776417  -0.0000000549  0.000006  0.000015  0.000019  0.000000
                  ***Gradient check signals convergence***
              ***Rediagonalizing the Fockian in SOSCF/NRSCF***

               *****************************************************
               *                     SUCCESS                       *
               *           SCF CONVERGED AFTER  28 CYCLES          *
               *****************************************************

Old exchange energy                            =    -59.095726109 Eh
New exchange energy                            =    -59.098461685 Eh
Exchange energy change after final integration =     -0.002735575 Eh
Total energy after final integration           =  -1668.830499737 Eh
Final COS-X integration done in                =    25.858 sec

----------------
TOTAL SCF ENERGY
----------------

Total Energy       :        -1668.83049974 Eh          -45411.18656 eV

Components:
Nuclear Repulsion  :          510.79574814 Eh           13899.45894 eV
Electronic Energy  :        -2179.62624787 Eh          -59310.64550 eV

One Electron Energy:        -3391.97235688 Eh          -92300.26029 eV
Two Electron Energy:         1212.34610900 Eh           32989.61479 eV

Virial components:
Potential Energy   :        -3206.11307735 Eh          -87242.77217 eV
Kinetic Energy     :         1537.28257761 Eh           41831.58561 eV
Virial Ratio       :            2.08557173


DFT components:
N(Alpha)           :       46.000017786576 electrons
N(Beta)            :       46.000017786576 electrons
N(Total)           :       92.000035573153 electrons
E(X)               :      -52.511189546298 Eh       
E(C)               :       -2.591385685749 Eh       
E(XC)              :      -55.102575232047 Eh       

---------------
SCF CONVERGENCE
---------------

  Last Energy change         ...    9.4960e-09  Tolerance :   1.0000e-08
  Last MAX-Density change    ...    1.2701e-13  Tolerance :   1.0000e-07
  Last RMS-Density change    ...    8.1062e-16  Tolerance :   5.0000e-09
  Last Orbital Gradient      ...    1.5083e-06  Tolerance :   1.0000e-05
  Last Orbital Rotation      ...    1.9168e-05  Tolerance :   1.0000e-05

             **** THE GBW FILE WAS UPDATED (PbMACl3_mp2_13.orca.gbw) ****
             **** DENSITY FILE WAS UPDATED (PbMACl3_mp2_13.orca.scfp.tmp) ****
             **** ENERGY FILE WAS UPDATED (PbMACl3_mp2_13.orca.en.tmp) ****
----------------
ORBITAL ENERGIES
----------------

  NO   OCC          E(Eh)            E(eV) 
   0   2.0000    -102.852200     -2798.7507 
   1   2.0000    -102.821571     -2797.9172 
   2   2.0000    -102.786152     -2796.9534 
   3   2.0000     -14.949982      -406.8097 
   4   2.0000     -10.693563      -290.9866 
   5   2.0000      -9.855634      -268.1854 
   6   2.0000      -9.826592      -267.3952 
   7   2.0000      -9.795248      -266.5423 
   8   2.0000      -7.493282      -203.9026 
   9   2.0000      -7.490854      -203.8365 
  10   2.0000      -7.490781      -203.8345 
  11   2.0000      -7.464195      -203.1111 
  12   2.0000      -7.461978      -203.0507 
  13   2.0000      -7.461203      -203.0296 
  14   2.0000      -7.432094      -202.2375 
  15   2.0000      -7.430500      -202.1942 
  16   2.0000      -7.430117      -202.1838 
  17   2.0000      -5.931098      -161.3934 
  18   2.0000      -3.703340      -100.7730 
  19   2.0000      -3.701707      -100.7286 
  20   2.0000      -3.697906      -100.6251 
  21   2.0000      -1.129520       -30.7358 
  22   2.0000      -1.089631       -29.6504 
  23   2.0000      -1.089548       -29.6481 
  24   2.0000      -1.085142       -29.5282 
  25   2.0000      -1.083518       -29.4840 
  26   2.0000      -1.082532       -29.4572 
  27   2.0000      -0.855349       -23.2752 
  28   2.0000      -0.847150       -23.0521 
  29   2.0000      -0.829095       -22.5608 
  30   2.0000      -0.807269       -21.9669 
  31   2.0000      -0.653694       -17.7879 
  32   2.0000      -0.650319       -17.6961 
  33   2.0000      -0.628924       -17.1139 
  34   2.0000      -0.586181       -15.9508 
  35   2.0000      -0.506393       -13.7797 
  36   2.0000      -0.503155       -13.6915 
  37   2.0000      -0.348364        -9.4795 
  38   2.0000      -0.342888        -9.3305 
  39   2.0000      -0.332931        -9.0595 
  40   2.0000      -0.331518        -9.0211 
  41   2.0000      -0.317954        -8.6520 
  42   2.0000      -0.315208        -8.5773 
  43   2.0000      -0.290478        -7.9043 
  44   2.0000      -0.283003        -7.7009 
  45   2.0000      -0.246483        -6.7071 
  46   0.0000      -0.146296        -3.9809 
  47   0.0000      -0.139166        -3.7869 
  48   0.0000      -0.097138        -2.6433 
  49   0.0000       0.035560         0.9676 
  50   0.0000       0.066895         1.8203 
  51   0.0000       0.079717         2.1692 
  52   0.0000       0.092409         2.5146 
  53   0.0000       0.100808         2.7431 
  54   0.0000       0.108601         2.9552 
  55   0.0000       0.123957         3.3731 
  56   0.0000       0.145937         3.9711 
  57   0.0000       0.147802         4.0219 
  58   0.0000       0.156197         4.2503 
  59   0.0000       0.170722         4.6456 
  60   0.0000       0.175242         4.7686 
  61   0.0000       0.192889         5.2488 
  62   0.0000       0.202599         5.5130 
  63   0.0000       0.221515         6.0277 
  64   0.0000       0.242978         6.6118 
  65   0.0000       0.256618         6.9829 
  66   0.0000       0.265239         7.2175 
  67   0.0000       0.306457         8.3391 
  68   0.0000       0.331768         9.0279 
  69   0.0000       0.371285        10.1032 
  70   0.0000       0.403584        10.9821 
  71   0.0000       0.426207        11.5977 
  72   0.0000       0.429043        11.6749 
  73   0.0000       0.452943        12.3252 
  74   0.0000       0.457939        12.4611 
  75   0.0000       0.461145        12.5484 
  76   0.0000       0.471858        12.8399 
  77   0.0000       0.475416        12.9367 
  78   0.0000       0.490447        13.3457 
  79   0.0000       0.496280        13.5045 
  80   0.0000       0.500916        13.6306 
  81   0.0000       0.507473        13.8090 
  82   0.0000       0.512943        13.9579 
  83   0.0000       0.522703        14.2235 
  84   0.0000       0.531060        14.4509 
  85   0.0000       0.534410        14.5420 
  86   0.0000       0.539363        14.6768 
  87   0.0000       0.548223        14.9179 
  88   0.0000       0.553671        15.0661 
  89   0.0000       0.560870        15.2620 
  90   0.0000       0.563603        15.3364 
  91   0.0000       0.571128        15.5412 
  92   0.0000       0.575235        15.6529 
  93   0.0000       0.578216        15.7341 
  94   0.0000       0.593530        16.1508 
  95   0.0000       0.600773        16.3479 
  96   0.0000       0.609674        16.5901 
  97   0.0000       0.614492        16.7212 
  98   0.0000       0.629462        17.1285 
  99   0.0000       0.633513        17.2388 
 100   0.0000       0.643908        17.5216 
 101   0.0000       0.658420        17.9165 
 102   0.0000       0.668157        18.1815 
 103   0.0000       0.675683        18.3863 
 104   0.0000       0.686925        18.6922 
 105   0.0000       0.688223        18.7275 
 106   0.0000       0.708537        19.2803 
 107   0.0000       0.724526        19.7153 
 108   0.0000       0.731996        19.9186 
 109   0.0000       0.744290        20.2532 
 110   0.0000       0.745890        20.2967 
 111   0.0000       0.772808        21.0292 
 112   0.0000       0.817828        22.2542 
 113   0.0000       0.857325        23.3290 
 114   0.0000       0.905683        24.6449 
 115   0.0000       0.918779        25.0012 
 116   0.0000       0.931921        25.3589 
 117   0.0000       0.965240        26.2655 
 118   0.0000       0.965627        26.2760 
 119   0.0000       0.997221        27.1358 
 120   0.0000       1.013706        27.5843 
 121   0.0000       1.031193        28.0602 
 122   0.0000       1.060749        28.8644 
 123   0.0000       1.071722        29.1630 
 124   0.0000       1.133110        30.8335 
 125   0.0000       1.171097        31.8672 
 126   0.0000       1.216428        33.1007 
 127   0.0000       1.267270        34.4842 
 128   0.0000       1.344347        36.5815 
 129   0.0000       1.374000        37.3884 
 130   0.0000       1.504284        40.9337 
 131   0.0000       1.574354        42.8404 
 132   0.0000       1.582927        43.0736 
 133   0.0000       1.591325        43.3021 
 134   0.0000       1.600342        43.5475 
 135   0.0000       1.625513        44.2324 
 136   0.0000       1.737063        47.2679 
 137   0.0000       1.799259        48.9603 
 138   0.0000       1.809548        49.2403 
 139   0.0000       1.877365        51.0857 
 140   0.0000       1.891302        51.4649 
 141   0.0000       1.902676        51.7744 
 142   0.0000       1.907414        51.9034 
 143   0.0000       1.916318        52.1457 
 144   0.0000       1.917844        52.1872 
 145   0.0000       1.921792        52.2946 
 146   0.0000       1.932757        52.5930 
 147   0.0000       1.935054        52.6555 
 148   0.0000       1.949883        53.0590 
 149   0.0000       1.969226        53.5854 
 150   0.0000       1.973438        53.7000 
 151   0.0000       2.009849        54.6908 
 152   0.0000       2.023215        55.0545 
 153   0.0000       2.030424        55.2506 
 154   0.0000       2.045793        55.6689 
 155   0.0000       2.053776        55.8861 
 156   0.0000       2.055828        55.9419 
 157   0.0000       2.067629        56.2630 
 158   0.0000       2.076275        56.4983 
 159   0.0000       2.082950        56.6800 
 160   0.0000       2.095618        57.0247 
 161   0.0000       2.099184        57.1217 
 162   0.0000       2.104025        57.2534 
 163   0.0000       2.137483        58.1639 
 164   0.0000       2.153537        58.6007 
 165   0.0000       2.163190        58.8634 
 166   0.0000       2.178585        59.2823 
 167   0.0000       2.241563        60.9960 
 168   0.0000       2.263534        61.5939 
 169   0.0000       2.265580        61.6496 
 170   0.0000       2.266433        61.6728 
 171   0.0000       2.272291        61.8322 
 172   0.0000       2.272595        61.8405 
 173   0.0000       2.274621        61.8956 
 174   0.0000       2.276291        61.9410 
 175   0.0000       2.277522        61.9745 
 176   0.0000       2.278340        61.9968 
 177   0.0000       2.287005        62.2326 
 178   0.0000       2.291692        62.3601 
 179   0.0000       2.295327        62.4590 
 180   0.0000       2.304748        62.7154 
 181   0.0000       2.308277        62.8114 
 182   0.0000       2.313249        62.9467 
 183   0.0000       2.335969        63.5650 
 184   0.0000       2.342087        63.7314 
 185   0.0000       2.356860        64.1334 
 186   0.0000       2.370246        64.4977 
 187   0.0000       2.382644        64.8350 
 188   0.0000       2.386566        64.9418 
 189   0.0000       2.395988        65.1982 
 190   0.0000       2.399686        65.2988 
 191   0.0000       2.411226        65.6128 
 192   0.0000       2.426605        66.0313 
 193   0.0000       2.436244        66.2936 
 194   0.0000       2.463297        67.0297 
 195   0.0000       2.471141        67.2432 
 196   0.0000       2.489649        67.7468 
 197   0.0000       2.496518        67.9337 
 198   0.0000       2.530747        68.8651 
 199   0.0000       2.547319        69.3161 
 200   0.0000       2.567595        69.8678 
 201   0.0000       2.596615        70.6575 
 202   0.0000       2.620724        71.3135 
 203   0.0000       2.635111        71.7050 
 204   0.0000       2.685758        73.0832 
 205   0.0000       2.692254        73.2600 
 206   0.0000       2.772650        75.4476 
 207   0.0000       2.796245        76.0897 
 208   0.0000       2.835774        77.1653 
 209   0.0000       2.858316        77.7787 
 210   0.0000       2.883185        78.4555 
 211   0.0000       2.994702        81.4900 
 212   0.0000       3.064212        83.3814 
 213   0.0000       3.139136        85.4202 
 214   0.0000       3.225393        87.7674 
 215   0.0000       3.245637        88.3183 
 216   0.0000       3.257592        88.6436 
 217   0.0000       3.322683        90.4148 
 218   0.0000       3.413863        92.8959 
 219   0.0000       3.566332        97.0448 
 220   0.0000       3.593680        97.7890 
 221   0.0000       3.626251        98.6753 
 222   0.0000       3.795465       103.2799 
 223   0.0000       3.800391       103.4139 
 224   0.0000       3.953307       107.5749 
 225   0.0000       4.186443       113.9189 
 226   0.0000       4.206309       114.4595 
 227   0.0000       4.463945       121.4701 
 228   0.0000       4.465455       121.5112 
 229   0.0000       4.854816       132.1063 
 230   0.0000       4.917299       133.8065 
 231   0.0000       4.960954       134.9944 
 232   0.0000       4.977459       135.4435 
 233   0.0000       5.104516       138.9009 
 234   0.0000       5.127136       139.5165 
 235   0.0000       5.141027       139.8945 
 236   0.0000       5.332102       145.0939 
 237   0.0000       5.524589       150.3317 
 238   0.0000       5.554894       151.1564 
 239   0.0000       5.877491       159.9347 
 240   0.0000      11.045381       300.5601 
 241   0.0000      11.052699       300.7592 
 242   0.0000      11.064119       301.0700 
 243   0.0000      11.088230       301.7261 
 244   0.0000      11.115087       302.4569 
 245   0.0000      11.123604       302.6886 
 246   0.0000      11.149901       303.4042 
 247   0.0000      11.170785       303.9725 
 248   0.0000      11.214015       305.1489 
 249   0.0000      22.676816       617.0675 
 250   0.0000      24.490341       666.4161 
 251   0.0000      24.801531       674.8840 
 252   0.0000      25.141711       684.1407 
 253   0.0000      32.324993       879.6078 
 254   0.0000      35.326041       961.2704 
 255   0.0000      35.567870       967.8510 
 256   0.0000      35.607777       968.9369 
 257   0.0000      35.648982       970.0581 
 258   0.0000     123.439019      3358.9465 

                    ********************************
                    * MULLIKEN POPULATION ANALYSIS *
                    ********************************

-----------------------
MULLIKEN ATOMIC CHARGES
-----------------------
   0 C :   -0.252340
   1 N :   -0.261403
   2 H :    0.178294
   3 H :    0.142664
   4 H :    0.146784
   5 H :    0.253687
   6 H :    0.310856
   7 H :    0.240429
   8 Pb:    1.039985
   9 Cl:   -0.553702
  10 Cl:   -0.566025
  11 Cl:   -0.679228
Sum of atomic charges:   -0.0000000

--------------------------------
MULLIKEN REDUCED ORBITAL CHARGES
--------------------------------
  0 C s       :     3.274033  s :     3.274033
      pz      :     0.978479  p :     2.903416
      px      :     0.990682
      py      :     0.934254
      dz2     :     0.006598  d :     0.068848
      dxz     :     0.018024
      dyz     :     0.018523
      dx2y2   :     0.007261
      dxy     :     0.018441
      f0      :     0.000358  f :     0.006044
      f+1     :     0.000490
      f-1     :     0.000723
      f+2     :     0.000733
      f-2     :     0.002643
      f+3     :     0.000505
      f-3     :     0.000591
  1 N s       :     3.410991  s :     3.410991
      pz      :     1.260902  p :     3.792026
      px      :     1.273662
      py      :     1.257463
      dz2     :     0.006077  d :     0.056080
      dxz     :     0.013371
      dyz     :     0.014497
      dx2y2   :     0.009342
      dxy     :     0.012793
      f0      :     0.000128  f :     0.002305
      f+1     :     0.000165
      f-1     :     0.000227
      f+2     :     0.000240
      f-2     :     0.001162
      f+3     :     0.000152
      f-3     :     0.000232
  2 H s       :     0.799319  s :     0.799319
      pz      :     0.008299  p :     0.022387
      px      :     0.007679
      py      :     0.006408
  3 H s       :     0.835857  s :     0.835857
      pz      :     0.007029  p :     0.021479
      px      :     0.007119
      py      :     0.007331
  4 H s       :     0.831654  s :     0.831654
      pz      :     0.006673  p :     0.021563
      px      :     0.007511
      py      :     0.007378
  5 H s       :     0.699953  s :     0.699953
      pz      :     0.011963  p :     0.046360
      px      :     0.011110
      py      :     0.023287
  6 H s       :     0.646120  s :     0.646120
      pz      :     0.013999  p :     0.043023
      px      :     0.010587
      py      :     0.018438
  7 H s       :     0.726891  s :     0.726891
      pz      :     0.012457  p :     0.032681
      px      :     0.012000
      py      :     0.008224
  8 Pbs       :     4.009723  s :     4.009723
      pz      :     2.192240  p :     6.847959
      px      :     2.357829
      py      :     2.297890
      dz2     :     2.015985  d :    10.095400
      dxz     :     2.017811
      dyz     :     2.008005
      dx2y2   :     2.026838
      dxy     :     2.026761
      f0      :     0.000442  f :     0.006933
      f+1     :     0.001214
      f-1     :     0.000645
      f+2     :     0.000473
      f-2     :     0.000579
      f+3     :     0.002358
      f-3     :     0.001221
  9 Cls       :     5.974625  s :     5.974625
      pz      :     3.954957  p :    11.566321
      px      :     3.690562
      py      :     3.920802
      dz2     :     0.005957  d :     0.012329
      dxz     :     0.001657
      dyz     :     0.001553
      dx2y2   :     0.002398
      dxy     :     0.000764
      f0      :     0.000185  f :     0.000427
      f+1     :     0.000112
      f-1     :     0.000044
      f+2     :     0.000032
      f-2     :     0.000012
      f+3     :     0.000033
      f-3     :     0.000009
 10 Cls       :     5.981342  s :     5.981342
      pz      :     3.947309  p :    11.579341
      px      :     3.832730
      py      :     3.799303
      dz2     :     0.000863  d :     0.005162
      dxz     :     0.000375
      dyz     :     0.000535
      dx2y2   :     0.000896
      dxy     :     0.002494
      f0      :     0.000015  f :     0.000180
      f+1     :     0.000017
      f-1     :     0.000025
      f+2     :     0.000002
      f-2     :     0.000023
      f+3     :     0.000061
      f-3     :     0.000037
 11 Cls       :     5.974740  s :     5.974740
      pz      :     3.957762  p :    11.686270
      px      :     3.783584
      py      :     3.944924
      dz2     :     0.004880  d :     0.017344
      dxz     :     0.002602
      dyz     :     0.003118
      dx2y2   :     0.003519
      dxy     :     0.003225
      f0      :     0.000238  f :     0.000874
      f+1     :     0.000095
      f-1     :     0.000124
      f+2     :     0.000132
      f-2     :     0.000034
      f+3     :     0.000141
      f-3     :     0.000110


                     *******************************
                     * LOEWDIN POPULATION ANALYSIS *
                     *******************************

----------------------
LOEWDIN ATOMIC CHARGES
----------------------
   0 C :   -0.283873
   1 N :    0.037217
   2 H :    0.129515
   3 H :    0.119548
   4 H :    0.120905
   5 H :    0.142438
   6 H :    0.154572
   7 H :    0.177892
   8 Pb:    0.859929
   9 Cl:   -0.470970
  10 Cl:   -0.475649
  11 Cl:   -0.511524

-------------------------------
LOEWDIN REDUCED ORBITAL CHARGES
-------------------------------
  0 C s       :     2.856353  s :     2.856353
      pz      :     1.034991  p :     3.090416
      px      :     1.044549
      py      :     1.010876
      dz2     :     0.028913  d :     0.300183
      dxz     :     0.076611
      dyz     :     0.082631
      dx2y2   :     0.029521
      dxy     :     0.082507
      f0      :     0.005406  f :     0.036921
      f+1     :     0.003948
      f-1     :     0.005657
      f+2     :     0.004288
      f-2     :     0.007048
      f+3     :     0.004930
      f-3     :     0.005644
  1 N s       :     3.017221  s :     3.017221
      pz      :     1.240804  p :     3.753472
      px      :     1.239808
      py      :     1.272860
      dz2     :     0.018939  d :     0.182146
      dxz     :     0.044866
      dyz     :     0.047862
      dx2y2   :     0.026667
      dxy     :     0.043812
      f0      :     0.001492  f :     0.009943
      f+1     :     0.001133
      f-1     :     0.001566
      f+2     :     0.001143
      f-2     :     0.001632
      f+3     :     0.001234
      f-3     :     0.001742
  2 H s       :     0.806154  s :     0.806154
      pz      :     0.023381  p :     0.064331
      px      :     0.021893
      py      :     0.019057
  3 H s       :     0.818614  s :     0.818614
      pz      :     0.019592  p :     0.061839
      px      :     0.021945
      py      :     0.020302
  4 H s       :     0.816959  s :     0.816959
      pz      :     0.020647  p :     0.062137
      px      :     0.020931
      py      :     0.020559
  5 H s       :     0.717640  s :     0.717640
      pz      :     0.038319  p :     0.139922
      px      :     0.032105
      py      :     0.069498
  6 H s       :     0.717964  s :     0.717964
      pz      :     0.039665  p :     0.127464
      px      :     0.035807
      py      :     0.051993
  7 H s       :     0.723598  s :     0.723598
      pz      :     0.036374  p :     0.098510
      px      :     0.033819
      py      :     0.028317
  8 Pbs       :     3.985827  s :     3.985827
      pz      :     2.214621  p :     6.972956
      px      :     2.419217
      py      :     2.339118
      dz2     :     2.031000  d :    10.168961
      dxz     :     2.026960
      dyz     :     2.011582
      dx2y2   :     2.048776
      dxy     :     2.050643
      f0      :     0.000696  f :     0.012327
      f+1     :     0.002298
      f-1     :     0.001224
      f+2     :     0.000728
      f-2     :     0.000913
      f+3     :     0.004519
      f-3     :     0.001948
  9 Cls       :     5.919573  s :     5.919573
      pz      :     3.940772  p :    11.526283
      px      :     3.674443
      py      :     3.911069
      dz2     :     0.014242  d :     0.024106
      dxz     :     0.003448
      dyz     :     0.002524
      dx2y2   :     0.003153
      dxy     :     0.000739
      f0      :     0.000508  f :     0.001009
      f+1     :     0.000239
      f-1     :     0.000091
      f+2     :     0.000084
      f-2     :     0.000024
      f+3     :     0.000044
      f-3     :     0.000019
 10 Cls       :     5.923048  s :     5.923048
      pz      :     3.938287  p :    11.546818
      px      :     3.821262
      py      :     3.787269
      dz2     :     0.001013  d :     0.005593
      dxz     :     0.000333
      dyz     :     0.000472
      dx2y2   :     0.000869
      dxy     :     0.002906
      f0      :     0.000013  f :     0.000189
      f+1     :     0.000019
      f-1     :     0.000029
      f+2     :     0.000002
      f-2     :     0.000020
      f+3     :     0.000073
      f-3     :     0.000033
 11 Cls       :     5.883224  s :     5.883224
      pz      :     3.941321  p :    11.585113
      px      :     3.774194
      py      :     3.869598
      dz2     :     0.014128  d :     0.040846
      dxz     :     0.004657
      dyz     :     0.007322
      dx2y2   :     0.008090
      dxy     :     0.006648
      f0      :     0.000617  f :     0.002340
      f+1     :     0.000254
      f-1     :     0.000322
      f+2     :     0.000345
      f-2     :     0.000082
      f+3     :     0.000471
      f-3     :     0.000249


                      *****************************
                      * MAYER POPULATION ANALYSIS *
                      *****************************

  NA   - Mulliken gross atomic population
  ZA   - Total nuclear charge
  QA   - Mulliken gross atomic charge
  VA   - Mayer's total valence
  BVA  - Mayer's bonded valence
  FA   - Mayer's free valence

  ATOM       NA         ZA         QA         VA         BVA        FA
  0 C      6.2523     6.0000    -0.2523     3.8243     3.8243     0.0000
  1 N      7.2614     7.0000    -0.2614     3.3224     3.3224    -0.0000
  2 H      0.8217     1.0000     0.1783     0.9844     0.9844     0.0000
  3 H      0.8573     1.0000     0.1427     0.9620     0.9620     0.0000
  4 H      0.8532     1.0000     0.1468     0.9633     0.9633     0.0000
  5 H      0.7463     1.0000     0.2537     1.0268     1.0268    -0.0000
  6 H      0.6891     1.0000     0.3109     0.9688     0.9688    -0.0000
  7 H      0.7596     1.0000     0.2404     0.9452     0.9452    -0.0000
  8 Pb    20.9600    22.0000     1.0400     1.6321     1.6321     0.0000
  9 Cl    17.5537    17.0000    -0.5537     0.7376     0.7376     0.0000
 10 Cl    17.5660    17.0000    -0.5660     0.7468     0.7468    -0.0000
 11 Cl    17.6792    17.0000    -0.6792     0.5128     0.5128     0.0000

  Mayer bond orders larger than 0.1
B(  0-C ,  1-N ) :   0.9001 B(  0-C ,  2-H ) :   0.9564 B(  0-C ,  3-H ) :   0.9711 
B(  0-C ,  4-H ) :   0.9698 B(  1-N ,  5-H ) :   0.7892 B(  1-N ,  6-H ) :   0.8072 
B(  1-N ,  7-H ) :   0.8949 B(  5-H , 11-Cl) :   0.2312 B(  6-H ,  9-Cl) :   0.1713 
B(  8-Pb,  9-Cl) :   0.6046 B(  8-Pb, 10-Cl) :   0.7235 B(  8-Pb, 11-Cl) :   0.2897 


-------
TIMINGS
-------

Total SCF time: 0 days 0 hours 7 min 4 sec 

Total time                  ....     424.235 sec
Sum of individual times     ....     397.379 sec  ( 93.7%)

Fock matrix formation       ....     391.398 sec  ( 92.3%)
  Coulomb formation         ....     323.794 sec  ( 82.7% of F)
  Split-RI-J                ....      23.638 sec  (  6.0% of F)
  Chain of spheres X        ....     325.924 sec  ( 83.3% of F)
  COS-X 1 center corr.      ....       0.000 sec  (  0.0% of F)
  XC integration            ....      67.644 sec  ( 17.3% of F)
    Basis function eval.    ....      22.508 sec  ( 33.3% of XC)
    Density eval.           ....      18.778 sec  ( 27.8% of XC)
    XC-Functional eval.     ....       4.805 sec  (  7.1% of XC)
    XC-Potential eval.      ....      20.183 sec  ( 29.8% of XC)
Diagonalization             ....       0.839 sec  (  0.2%)
Density matrix formation    ....       0.071 sec  (  0.0%)
Population analysis         ....       0.082 sec  (  0.0%)
Initial guess               ....       0.168 sec  (  0.0%)
Orbital Transformation      ....       0.000 sec  (  0.0%)
Orbital Orthonormalization  ....       0.164 sec  (  0.0%)
DIIS solution               ....       0.246 sec  (  0.1%)
SOSCF solution              ....       0.172 sec  (  0.0%)
Grid generation             ....       4.404 sec  (  1.0%)

------------------------------------------------------------------------------
                              ORCA MP2 CALCULATION
------------------------------------------------------------------------------


----------------------
RI-MP2 ENERGY+GRADIENT
----------------------
Dimension of the basis                    ...  259
Memory devoted to MP2                     ... 1000 MB   
Data format for buffers                   ... DOUBLE
Compression type for matrix containers    ... UNCOMPRESSED
Overall scaling of the MP2 energy         ...   2.700e-01 Eh
Calculating two index integrals           ... done (    0.015 sec)
Cholesky decomposition of the V-matrix    ... done
Cholesky decomposition of V**-1           ... done (    0.030 sec)

-----------------
RI-TRANSFORMATION (AUX index driven)
-----------------

Dimension of the orbital-basis         ... 259
Dimension of the aux-basis             ... 493
Transformation of internal MOs         ...    0-  45
Transformation of internal/external MOs...    0-  45 to   46- 258
Number Format for Storage              ... Double (8 Byte)
Integral mode                          ... Direct

First Phase: integral generation and transformation of MO indices
  Aux angular momentum 0               ... done (    0.477 sec)
  Aux angular momentum 1               ... done (    0.399 sec)
  Aux angular momentum 2               ... done (    0.487 sec)
  Aux angular momentum 3               ... done (    0.289 sec)
  Aux angular momentum 4               ... done (    0.248 sec)
Closing buffer VIJ ( 0.00 GB; CompressionRatio= 1.95)
Closing buffer VIA ( 0.04 GB; CompressionRatio= 1.00)
  Phase 1 completed in     2.013 sec
Second Phase: sorting and transformation of aux index

IJ-Transformation
Memory available                       ... 990 MB 
Max. # MO pairs treated in a batch     ... 46    
# of internal orbitals                 ... 46
# batches for internal orbitals        ... 1
Closing buffer IJV ( 0.00 GB; CompressionRatio= 1.00)
(ij|v) transformation done in     0.136 sec

IA-Transformation
Memory available                       ... 990 MB 
Max. # MO pairs treated in a batch     ... 46    
# of internal orbitals                 ... 46
# batches for internal orbitals        ... 1
Closing buffer IAV ( 0.04 GB; CompressionRatio= 1.00)
(ia|v) transformation done in     0.587 sec

  Phase 2 completed in     0.754 sec
RI-Integral transformation completed in     2.767 sec
Opening buffers                              ... done

Starting loop over batches of integrals:

Operator 0  - window                       ... (  0- 45)x( 46-258)
Operator 0  - Memory available             ...  1000 MB
Operator 0  - Memory needed per MO         ...   1.6 MB
Operator 0  - Number of orbitals per batch ... 46
Operator 0  - Number of batches            ... 1

OPERATOR  0   PASS   0:  MOs     0 ...   45
  Reading integrals       ... ok
  Internal MO   2
  Internal MO   5
  Internal MO   8
  Internal MO  11
  Internal MO  14
  Internal MO  17
  Internal MO  20
  Internal MO  23
  Internal MO  26
  Internal MO  29
  Internal MO  32
  Internal MO  35
  Internal MO  38
  Internal MO  41
  Internal MO  44
Closing buffer GIPV ( 0.04 GB; CompressionRatio= 1.00)
Time spent in pair loops =    64.168 sec

-----------------------------------------------
 RI-MP2 CORRELATION ENERGY:     -0.580079885 Eh
-----------------------------------------------


---------------------
MP2 DENSITY FORMATION
---------------------

Completing the external part of the density      ... done
Storing the unrelaxed density                    ... done

Calculating the xc-kernel                        ... done
Calculating G(D)                                 ... done
Completing the Lagrangian                        ... done
Solving the Z-vector equations                   ... 

------------------------------------------------------------------------------
                           ORCA CP-SCF CALCULATION
------------------------------------------------------------------------------

Input orbitals are from        ... PbMACl3_mp2_13.orca.gbw
Input Perturbation             ... PbMACl3_mp2_13.orca.pin.tmp
Wavefunction output            ... PbMACl3_mp2_13.orca.pout.tmp
Perturbation mode              ... Real perturbation
Solver                         ... DIIS
   MaxDIIS                     ... 20
   Levelshift                  ...    3.000e-01 Eh
Max. number of iterations      ... 128
Convergence tolerance          ... 1.000e-08
Integral handling              ... Direct
COSX GridX                     ... 1
Number of perturbations        ... 1
Number of operators            ... 1
Orbital ranges used for CP-SCF:
 Operator 0:  Orbitals   0... 45  to  46...258
DFT calculation                         ... on
Exchange functional (SCF)               ... B88
Exchange functional (CP-SCF)            ... B88
   X-Alpha parameter    XAlpha (SCF)    ...  0.666667
   X-Alpha parameter    XAlpha (CP-SCF) ...  0.666667
   Becke's b parameter  XBeta (SCF)     ...  0.004200
   Becke's b parameter  XBeta (CP-SCF)  ...  0.004200
Correlation functional (SCF)            ... LYP
Correlation functional (CP-SCF)         ... LYP
 LDA part of GGA corr.  LDAOpt (SCF)    ... VWN-3
 LDA part of GGA corr.  LDAOpt (CP-SCF) ... VWN-3
Hybrid DFT                              ... on
   Exchange mixing (SCF)                ...  0.530
   Exchange mixing (CP-SCF)             ...  0.530
   GGA exch. scaling(SCF)               ...  0.470
   GGA exch. scaling (CP-SCF)           ...  0.470
   GGA corr. scaling (SCF)              ...  0.730
   GGA corr. scaling (CP-SCF)           ...  0.730
The RIJCOSX approximation is active
Variables per vector in CP-SCF ... 9798
Number of vectors sought       ... 1
Calculating the xc-kernel      ... done

Solving the CP-SCF equations by a DIIS algorithm

-----------------
CP-SCF ITERATIONS
-----------------
  Iteration   0: MaxR=  0.147445715
  Iteration   1: MaxR=  0.083009354
  Iteration   2: MaxR=  0.015581719
  Iteration   3: MaxR=  0.010175497
  Iteration   4: MaxR=  0.008018303
  Iteration   5: MaxR=  0.006429977
  Iteration   6: MaxR=  0.004945318
  Iteration   7: MaxR=  0.003595076
  Iteration   8: MaxR=  0.002657285
  Iteration   9: MaxR=  0.001615194
  Iteration  10: MaxR=  0.000775249
  Iteration  11: MaxR=  0.000488737
  Iteration  12: MaxR=  0.000328324
  Iteration  13: MaxR=  0.000234650
  Iteration  14: MaxR=  0.000182343
  Iteration  15: MaxR=  0.000124954
  Iteration  16: MaxR=  0.000082573
  Iteration  17: MaxR=  0.000055751
  Iteration  18: MaxR=  0.000030815
  Iteration  19: MaxR=  0.000016828
  Iteration  20: MaxR=  0.000009396
  Iteration  21: MaxR=  0.000004309
  Iteration  22: MaxR=  0.000001894
  Iteration  23: MaxR=  0.000001063
  Iteration  24: MaxR=  0.000000629
  Iteration  25: MaxR=  0.000000389
  Iteration  26: MaxR=  0.000000212
  Iteration  27: MaxR=  0.000000124
  Iteration  28: MaxR=  0.000000079
  Iteration  29: MaxR=  0.000000045
  Iteration  30: MaxR=  0.000000025
  Iteration  31: MaxR=  0.000000014
  Iteration  32: MaxR=  0.000000010
  Iteration  33: MaxR=  0.000000007
                              *** THE CP-SCF HAS CONVERGED *** 
done
Finalizing the relaxed density                   ... done
Transforming P to the AO basis                   ... done
Storing the relaxed density                      ... done

------------------------------------
ENERGY WEIGHTED DENSITY FINALIZATION
------------------------------------

Gathering the parts of the W-matrix              ... done
Forming the Z-density                            ... done
Transforming Z to the AO basis                   ... done
Calculating G(Z)                                 ... done
Finalizing the W-matrix                          ... done
Transforming W to the AO basis and storing       ... done
Entering the RIJONX and RIJCOSX sections
Starting the three-index derivative integrals:
Operator 0  - Memory available             ...  1000 MB
Operator 0  - Memory needed per MO         ...   1.0 MB
Operator 0  - Number of orbitals per batch ... 46
Operator 0  - Number of batches            ... 1

OPERATOR  0   PASS   0:  MOs     0 ...   45

----------------------------------
MP2 DERIVATIVE INTEGRAL GENERATION
----------------------------------


Input Correlated Electron Density   ... PbMACl3_mp2_13.orca.pmp2re
Input Energy Weighted Density       ... PbMACl3_mp2_13.orca.wmp2.tmp
Input SCF Electron Density          ... PbMACl3_mp2_13.orca.scfp.tmp

One-Electron Terms    ...
  ECP gradient                                           ... One-Electron Terms done

-----------------------------------------------------------
MP2 COSX Grid Generation
-----------------------------------------------------------

General Integration Accuracy     IntAcc      ...  4.340
Radial Grid Type                 RadialGrid  ... Gauss-Chebyshev
Angular Grid (max. acc.)         AngularGrid ... Lebedev-302
Angular grid pruning method      GridPruning ... 3 (G Style)
Weight generation scheme         WeightScheme... Becke
Basis function cutoff            BFCut       ...    1.0000e-11
Integration weight cutoff        WCut        ...    1.0000e-14
Grids for H and He will be reduced by one unit

# of grid points (after initial pruning)     ...  57718 (   0.0 sec)
# of grid points (after weights+screening)   ...  54662 (   0.2 sec)
nearest neighbour list constructed           ...    0.0 sec
Grid point re-assignment to atoms done       ...    0.0 sec
Grid point division into batches done        ...    0.3 sec
Reduced shell lists constructed in    1.1 sec

Total number of grid points                  ...    54662
Total number of batches                      ...      859
Average number of points per batch           ...       63
Average number of grid points per atom       ...     4555
Average number of shells per batch           ...    52.35 (51.83%)
Average number of basis functions per batch  ...   136.00 (52.51%)
Average number of large shells per batch     ...    39.19 (74.87%)
Average number of large basis fcns per batch ...   100.57 (73.95%)
Maximum spatial batch extension              ...  42.79, 35.78, 32.10 au
Average spatial batch extension              ...   3.05,  3.18,  3.18 au

Overlap Fitting                  UseSFitting ... on
Two electron COSX terms .... 
Integration Timings:
Total Time                  =   107.2 sec
Basis fcn evaluation        =     0.4 sec
Density evaluation          =     1.2 sec
Integral evaluation         =   103.3 sec
K(P) evaluation             =     1.0 sec
                          .... COSX two electron terms done
COSX two-electron contribution to the gradient
     0:    -0.020267    -0.023857    -0.019667
     1:     0.072409     0.037086     0.080677
     2:     0.104508    -0.077820     0.110160
     3:    -0.102151     0.095964     0.088589
     4:     0.095394     0.097685    -0.095255
     5:    -0.128639    -0.097530     0.090555
     6:     0.103688    -0.111822    -0.100589
     7:    -0.129236     0.070257    -0.131465
     8:    -0.022709    -0.048593    -0.006363
     9:     0.039256    -0.009758     0.025302
    10:    -0.037813     0.047314    -0.006535
    11:     0.025661     0.020805    -0.035486
Exchange-correlation gradient    ... done
Dispersion correction            ... 
Entering the calculation of the dispersion correction...

Checking the input atom types...

Done
done

                *********************************************
                * UNRELAXED MP2 DENSITY POPULATION ANALYSIS *
                *********************************************

------------------------------------------------------------------------------
                           ORCA POPULATION ANALYSIS
------------------------------------------------------------------------------
Input electron density              ... PbMACl3_mp2_13.orca.pmp2ur
BaseName (.gbw .S,...)              ... PbMACl3_mp2_13.orca

                    ********************************
                    * MULLIKEN POPULATION ANALYSIS *
                    ********************************

-----------------------
MULLIKEN ATOMIC CHARGES
-----------------------
   0 C :   -0.256829
   1 N :   -0.260467
   2 H :    0.179007
   3 H :    0.143761
   4 H :    0.147789
   5 H :    0.251789
   6 H :    0.309202
   7 H :    0.239881
   8 Pb:    0.997873
   9 Cl:   -0.535034
  10 Cl:   -0.550410
  11 Cl:   -0.666562
Sum of atomic charges:   -0.0000000

--------------------------------
MULLIKEN REDUCED ORBITAL CHARGES
--------------------------------
  0 C s       :     3.272749  s :     3.272749
      pz      :     0.977122  p :     2.899433
      px      :     0.989240
      py      :     0.933071
      dz2     :     0.008630  d :     0.077465
      dxz     :     0.019594
      dyz     :     0.020012
      dx2y2   :     0.009277
      dxy     :     0.019952
      f0      :     0.000516  f :     0.007182
      f+1     :     0.000665
      f-1     :     0.000893
      f+2     :     0.000915
      f-2     :     0.002766
      f+3     :     0.000671
      f-3     :     0.000756
  1 N s       :     3.408640  s :     3.408640
      pz      :     1.257590  p :     3.781547
      px      :     1.270181
      py      :     1.253777
      dz2     :     0.008357  d :     0.066932
      dxz     :     0.015421
      dyz     :     0.016621
      dx2y2   :     0.011648
      dxy     :     0.014885
      f0      :     0.000272  f :     0.003347
      f+1     :     0.000315
      f-1     :     0.000380
      f+2     :     0.000396
      f-2     :     0.001299
      f+3     :     0.000302
      f-3     :     0.000383
  2 H s       :     0.797633  s :     0.797633
      pz      :     0.008610  p :     0.023360
      px      :     0.007996
      py      :     0.006755
  3 H s       :     0.833727  s :     0.833727
      pz      :     0.007367  p :     0.022512
      px      :     0.007472
      py      :     0.007673
  4 H s       :     0.829622  s :     0.829622
      pz      :     0.007027  p :     0.022589
      px      :     0.007842
      py      :     0.007719
  5 H s       :     0.701245  s :     0.701245
      pz      :     0.012175  p :     0.046967
      px      :     0.011341
      py      :     0.023451
  6 H s       :     0.647190  s :     0.647190
      pz      :     0.014224  p :     0.043608
      px      :     0.010762
      py      :     0.018622
  7 H s       :     0.726720  s :     0.726720
      pz      :     0.012674  p :     0.033399
      px      :     0.012230
      py      :     0.008496
  8 Pbs       :     3.988847  s :     3.988847
      pz      :     2.212477  p :     6.906175
      px      :     2.377847
      py      :     2.315851
      dz2     :     2.009648  d :    10.065535
      dxz     :     2.011954
      dyz     :     2.001892
      dx2y2   :     2.021110
      dxy     :     2.020931
      f0      :     0.005390  f :     0.041569
      f+1     :     0.006158
      f-1     :     0.005570
      f+2     :     0.005411
      f-2     :     0.005523
      f+3     :     0.007301
      f-3     :     0.006216
  9 Cls       :     5.969458  s :     5.969458
      pz      :     3.938927  p :    11.511704
      px      :     3.667213
      py      :     3.905564
      dz2     :     0.013697  d :     0.050826
      dxz     :     0.009396
      dyz     :     0.009350
      dx2y2   :     0.009980
      dxy     :     0.008403
      f0      :     0.000570  f :     0.003046
      f+1     :     0.000487
      f-1     :     0.000430
      f+2     :     0.000407
      f-2     :     0.000385
      f+3     :     0.000395
      f-3     :     0.000372
 10 Cls       :     5.976190  s :     5.976190
      pz      :     3.931850  p :    11.529130
      px      :     3.815250
      py      :     3.782030
      dz2     :     0.008271  d :     0.042385
      dxz     :     0.007794
      dyz     :     0.008009
      dx2y2   :     0.008390
      dxy     :     0.009921
      f0      :     0.000377  f :     0.002706
      f+1     :     0.000378
      f-1     :     0.000387
      f+2     :     0.000363
      f-2     :     0.000384
      f+3     :     0.000421
      f-3     :     0.000397
 11 Cls       :     5.969999  s :     5.969999
      pz      :     3.942373  p :    11.635561
      px      :     3.763488
      py      :     3.929701
      dz2     :     0.012900  d :     0.057354
      dxz     :     0.010568
      dyz     :     0.011273
      dx2y2   :     0.011361
      dxy     :     0.011252
      f0      :     0.000638  f :     0.003647
      f+1     :     0.000481
      f-1     :     0.000534
      f+2     :     0.000526
      f-2     :     0.000428
      f+3     :     0.000537
      f-3     :     0.000503


                     *******************************
                     * LOEWDIN POPULATION ANALYSIS *
                     *******************************

----------------------
LOEWDIN ATOMIC CHARGES
----------------------
   0 C :   -0.286996
   1 N :    0.036499
   2 H :    0.130171
   3 H :    0.120268
   4 H :    0.121623
   5 H :    0.141552
   6 H :    0.153762
   7 H :    0.177404
   8 Pb:    0.818007
   9 Cl:   -0.452575
  10 Cl:   -0.460225
  11 Cl:   -0.499490

-------------------------------
LOEWDIN REDUCED ORBITAL CHARGES
-------------------------------
  0 C s       :     2.855768  s :     2.855768
      pz      :     1.032604  p :     3.083319
      px      :     1.042105
      py      :     1.008610
      dz2     :     0.030720  d :     0.309220
      dxz     :     0.078415
      dyz     :     0.084445
      dx2y2   :     0.031341
      dxy     :     0.084299
      f0      :     0.005634  f :     0.038689
      f+1     :     0.004163
      f-1     :     0.005866
      f+2     :     0.004502
      f-2     :     0.007507
      f+3     :     0.005160
      f-3     :     0.005856
  1 N s       :     3.016616  s :     3.016616
      pz      :     1.237187  p :     3.742007
      px      :     1.236206
      py      :     1.268614
      dz2     :     0.020956  d :     0.193576
      dxz     :     0.047246
      dyz     :     0.050397
      dx2y2   :     0.028679
      dxy     :     0.046297
      f0      :     0.001672  f :     0.011302
      f+1     :     0.001308
      f-1     :     0.001741
      f+2     :     0.001322
      f-2     :     0.001922
      f+3     :     0.001420
      f-3     :     0.001918
  2 H s       :     0.803718  s :     0.803718
      pz      :     0.024003  p :     0.066111
      px      :     0.022488
      py      :     0.019620
  3 H s       :     0.816009  s :     0.816009
      pz      :     0.020177  p :     0.063723
      px      :     0.022610
      py      :     0.020937
  4 H s       :     0.814372  s :     0.814372
      pz      :     0.021279  p :     0.064005
      px      :     0.021532
      py      :     0.021194
  5 H s       :     0.717195  s :     0.717195
      pz      :     0.038745  p :     0.141254
      px      :     0.032697
      py      :     0.069812
  6 H s       :     0.717333  s :     0.717333
      pz      :     0.040180  p :     0.128905
      px      :     0.036231
      py      :     0.052494
  7 H s       :     0.722420  s :     0.722420
      pz      :     0.036984  p :     0.100176
      px      :     0.034408
      py      :     0.028784
  8 Pbs       :     3.965076  s :     3.965076
      pz      :     2.235039  p :     7.030783
      px      :     2.438830
      py      :     2.356915
      dz2     :     2.024616  d :    10.139147
      dxz     :     2.021160
      dyz     :     2.005529
      dx2y2   :     2.043043
      dxy     :     2.044798
      f0      :     0.005650  f :     0.046988
      f+1     :     0.007247
      f-1     :     0.006147
      f+2     :     0.005671
      f-2     :     0.005866
      f+3     :     0.009447
      f-3     :     0.006958
  9 Cls       :     5.914245  s :     5.914245
      pz      :     3.924737  p :    11.471880
      px      :     3.651370
      py      :     3.895773
      dz2     :     0.022030  d :     0.062804
      dxz     :     0.011179
      dyz     :     0.010367
      dx2y2   :     0.010850
      dxy     :     0.008379
      f0      :     0.000897  f :     0.003646
      f+1     :     0.000617
      f-1     :     0.000480
      f+2     :     0.000461
      f-2     :     0.000399
      f+3     :     0.000409
      f-3     :     0.000384
 10 Cls       :     5.917884  s :     5.917884
      pz      :     3.922731  p :    11.496713
      px      :     3.803833
      py      :     3.770149
      dz2     :     0.008448  d :     0.042906
      dxz     :     0.007749
      dyz     :     0.007938
      dx2y2   :     0.008362
      dxy     :     0.010409
      f0      :     0.000375  f :     0.002722
      f+1     :     0.000380
      f-1     :     0.000392
      f+2     :     0.000363
      f-2     :     0.000382
      f+3     :     0.000435
      f-3     :     0.000394
 11 Cls       :     5.878290  s :     5.878290
      pz      :     3.926060  p :    11.535077
      px      :     3.754114
      py      :     3.854902
      dz2     :     0.022149  d :     0.080971
      dxz     :     0.012670
      dyz     :     0.015467
      dx2y2   :     0.015997
      dxy     :     0.014687
      f0      :     0.001021  f :     0.005152
      f+1     :     0.000644
      f-1     :     0.000740
      f+2     :     0.000742
      f-2     :     0.000480
      f+3     :     0.000875
      f-3     :     0.000650


                      *****************************
                      * MAYER POPULATION ANALYSIS *
                      *****************************

  NA   - Mulliken gross atomic population
  ZA   - Total nuclear charge
  QA   - Mulliken gross atomic charge
  VA   - Mayer's total valence
  BVA  - Mayer's bonded valence
  FA   - Mayer's free valence

  ATOM       NA         ZA         QA         VA         BVA        FA
  0 C      6.2568     6.0000    -0.2568     3.8700     3.7547     0.1153
  1 N      7.2605     7.0000    -0.2605     3.3957     3.2507     0.1450
  2 H      0.8210     1.0000     0.1790     0.9870     0.9681     0.0189
  3 H      0.8562     1.0000     0.1438     0.9648     0.9460     0.0188
  4 H      0.8522     1.0000     0.1478     0.9662     0.9473     0.0189
  5 H      0.7482     1.0000     0.2518     1.0302     1.0055     0.0247
  6 H      0.6908     1.0000     0.3092     0.9718     0.9507     0.0211
  7 H      0.7601     1.0000     0.2399     0.9484     0.9258     0.0226
  8 Pb    21.0021    22.0000     0.9979     1.9706     1.5442     0.4264
  9 Cl    17.5350    17.0000    -0.5350     1.0020     0.6959     0.3061
 10 Cl    17.5504    17.0000    -0.5504     1.0015     0.7098     0.2916
 11 Cl    17.6666    17.0000    -0.6666     0.7759     0.4906     0.2853

  Mayer bond orders larger than 0.1
B(  0-C ,  1-N ) :   0.8775 B(  0-C ,  2-H ) :   0.9413 B(  0-C ,  3-H ) :   0.9557 
B(  0-C ,  4-H ) :   0.9544 B(  1-N ,  5-H ) :   0.7742 B(  1-N ,  6-H ) :   0.7923 
B(  1-N ,  7-H ) :   0.8772 B(  5-H , 11-Cl) :   0.2251 B(  6-H ,  9-Cl) :   0.1681 
B(  8-Pb,  9-Cl) :   0.5671 B(  8-Pb, 10-Cl) :   0.6877 B(  8-Pb, 11-Cl) :   0.2749 



                *******************************************
                * RELAXED MP2 DENSITY POPULATION ANALYSIS *
                *******************************************

------------------------------------------------------------------------------
                           ORCA POPULATION ANALYSIS
------------------------------------------------------------------------------
Input electron density              ... PbMACl3_mp2_13.orca.pmp2re
BaseName (.gbw .S,...)              ... PbMACl3_mp2_13.orca

                    ********************************
                    * MULLIKEN POPULATION ANALYSIS *
                    ********************************

-----------------------
MULLIKEN ATOMIC CHARGES
-----------------------
   0 C :   -0.274743
   1 N :   -0.256204
   2 H :    0.179381
   3 H :    0.149754
   4 H :    0.152660
   5 H :    0.246665
   6 H :    0.297744
   7 H :    0.241087
   8 Pb:    0.892713
   9 Cl:   -0.491202
  10 Cl:   -0.514152
  11 Cl:   -0.623703
Sum of atomic charges:   -0.0000000

--------------------------------
MULLIKEN REDUCED ORBITAL CHARGES
--------------------------------
  0 C s       :     3.275336  s :     3.275336
      pz      :     0.983287  p :     2.919205
      px      :     0.996092
      py      :     0.939826
      dz2     :     0.008811  d :     0.073190
      dxz     :     0.018071
      dyz     :     0.018487
      dx2y2   :     0.009445
      dxy     :     0.018376
      f0      :     0.000497  f :     0.007013
      f+1     :     0.000656
      f-1     :     0.000876
      f+2     :     0.000908
      f-2     :     0.002681
      f+3     :     0.000657
      f-3     :     0.000737
  1 N s       :     3.409796  s :     3.409796
      pz      :     1.257278  p :     3.777850
      px      :     1.268322
      py      :     1.252250
      dz2     :     0.008528  d :     0.065273
      dxz     :     0.014640
      dyz     :     0.016037
      dx2y2   :     0.011816
      dxy     :     0.014251
      f0      :     0.000268  f :     0.003285
      f+1     :     0.000313
      f-1     :     0.000380
      f+2     :     0.000396
      f-2     :     0.001250
      f+3     :     0.000298
      f-3     :     0.000380
  2 H s       :     0.797656  s :     0.797656
      pz      :     0.008444  p :     0.022964
      px      :     0.007850
      py      :     0.006669
  3 H s       :     0.828055  s :     0.828055
      pz      :     0.007272  p :     0.022191
      px      :     0.007352
      py      :     0.007567
  4 H s       :     0.825087  s :     0.825087
      pz      :     0.006927  p :     0.022252
      px      :     0.007713
      py      :     0.007612
  5 H s       :     0.707093  s :     0.707093
      pz      :     0.012020  p :     0.046242
      px      :     0.011273
      py      :     0.022950
  6 H s       :     0.659157  s :     0.659157
      pz      :     0.014082  p :     0.043099
      px      :     0.010662
      py      :     0.018355
  7 H s       :     0.725837  s :     0.725837
      pz      :     0.012505  p :     0.033076
      px      :     0.012063
      py      :     0.008507
  8 Pbs       :     3.988819  s :     3.988819
      pz      :     2.275479  p :     7.021583
      px      :     2.402533
      py      :     2.343570
      dz2     :     2.007385  d :    10.056030
      dxz     :     2.010709
      dyz     :     2.001747
      dx2y2   :     2.018201
      dxy     :     2.017987
      f0      :     0.005357  f :     0.040855
      f+1     :     0.006010
      f-1     :     0.005510
      f+2     :     0.005364
      f-2     :     0.005493
      f+3     :     0.006974
      f-3     :     0.006148
  9 Cls       :     5.971502  s :     5.971502
      pz      :     3.916339  p :    11.465713
      px      :     3.653858
      py      :     3.895516
      dz2     :     0.013926  d :     0.050930
      dxz     :     0.009533
      dyz     :     0.009493
      dx2y2   :     0.009633
      dxy     :     0.008345
      f0      :     0.000574  f :     0.003058
      f+1     :     0.000486
      f-1     :     0.000432
      f+2     :     0.000410
      f-2     :     0.000386
      f+3     :     0.000397
      f-3     :     0.000374
 10 Cls       :     5.977417  s :     5.977417
      pz      :     3.918848  p :    11.492308
      px      :     3.799507
      py      :     3.773954
      dz2     :     0.008145  d :     0.041714
      dxz     :     0.007766
      dyz     :     0.007956
      dx2y2   :     0.008311
      dxy     :     0.009536
      f0      :     0.000378  f :     0.002713
      f+1     :     0.000379
      f-1     :     0.000387
      f+2     :     0.000363
      f-2     :     0.000386
      f+3     :     0.000421
      f-3     :     0.000399
 11 Cls       :     5.971925  s :     5.971925
      pz      :     3.944140  p :    11.589738
      px      :     3.724254
      py      :     3.921344
      dz2     :     0.013440  d :     0.058359
      dxz     :     0.010479
      dyz     :     0.011566
      dx2y2   :     0.011465
      dxy     :     0.011409
      f0      :     0.000643  f :     0.003681
      f+1     :     0.000481
      f-1     :     0.000544
      f+2     :     0.000529
      f-2     :     0.000430
      f+3     :     0.000546
      f-3     :     0.000508


                     *******************************
                     * LOEWDIN POPULATION ANALYSIS *
                     *******************************

----------------------
LOEWDIN ATOMIC CHARGES
----------------------
   0 C :   -0.296977
   1 N :    0.033580
   2 H :    0.131219
   3 H :    0.123091
   4 H :    0.124010
   5 H :    0.140459
   6 H :    0.150874
   7 H :    0.178985
   8 Pb:    0.717638
   9 Cl:   -0.412927
  10 Cl:   -0.426896
  11 Cl:   -0.463055

-------------------------------
LOEWDIN REDUCED ORBITAL CHARGES
-------------------------------
  0 C s       :     2.857277  s :     2.857277
      pz      :     1.036914  p :     3.096698
      px      :     1.046585
      py      :     1.013199
      dz2     :     0.030889  d :     0.304559
      dxz     :     0.076603
      dyz     :     0.082852
      dx2y2   :     0.031509
      dxy     :     0.082706
      f0      :     0.005625  f :     0.038443
      f+1     :     0.004135
      f-1     :     0.005837
      f+2     :     0.004471
      f-2     :     0.007402
      f+3     :     0.005142
      f-3     :     0.005830
  1 N s       :     3.018904  s :     3.018904
      pz      :     1.238295  p :     3.742897
      px      :     1.237428
      py      :     1.267174
      dz2     :     0.021203  d :     0.193267
      dxz     :     0.046634
      dyz     :     0.050407
      dx2y2   :     0.028873
      dxy     :     0.046150
      f0      :     0.001691  f :     0.011352
      f+1     :     0.001311
      f-1     :     0.001747
      f+2     :     0.001321
      f-2     :     0.001926
      f+3     :     0.001436
      f-3     :     0.001920
  2 H s       :     0.802666  s :     0.802666
      pz      :     0.023979  p :     0.066115
      px      :     0.022466
      py      :     0.019670
  3 H s       :     0.812987  s :     0.812987
      pz      :     0.020237  p :     0.063922
      px      :     0.022673
      py      :     0.021011
  4 H s       :     0.811819  s :     0.811819
      pz      :     0.021342  p :     0.064172
      px      :     0.021560
      py      :     0.021269
  5 H s       :     0.718987  s :     0.718987
      pz      :     0.038634  p :     0.140554
      px      :     0.032731
      py      :     0.069189
  6 H s       :     0.720709  s :     0.720709
      pz      :     0.040031  p :     0.128418
      px      :     0.036102
      py      :     0.052285
  7 H s       :     0.720650  s :     0.720650
      pz      :     0.037039  p :     0.100365
      px      :     0.034444
      py      :     0.028883
  8 Pbs       :     3.965976  s :     3.965976
      pz      :     2.297745  p :     7.141119
      px      :     2.460642
      py      :     2.382733
      dz2     :     2.022155  d :    10.129192
      dxz     :     2.019712
      dyz     :     2.005306
      dx2y2   :     2.040192
      dxy     :     2.041827
      f0      :     0.005605  f :     0.046075
      f+1     :     0.007045
      f-1     :     0.006067
      f+2     :     0.005610
      f-2     :     0.005828
      f+3     :     0.009047
      f-3     :     0.006872
  9 Cls       :     5.917110  s :     5.917110
      pz      :     3.902500  p :    11.429529
      px      :     3.639268
      py      :     3.887762
      dz2     :     0.021954  d :     0.062639
      dxz     :     0.011224
      dyz     :     0.010533
      dx2y2   :     0.010587
      dxy     :     0.008341
      f0      :     0.000896  f :     0.003649
      f+1     :     0.000612
      f-1     :     0.000480
      f+2     :     0.000465
      f-2     :     0.000400
      f+3     :     0.000411
      f-3     :     0.000386
 10 Cls       :     5.920086  s :     5.920086
      pz      :     3.910055  p :    11.461687
      px      :     3.788742
      py      :     3.762890
      dz2     :     0.008348  d :     0.042392
      dxz     :     0.007731
      dyz     :     0.007906
      dx2y2   :     0.008310
      dxy     :     0.010098
      f0      :     0.000376  f :     0.002730
      f+1     :     0.000381
      f-1     :     0.000393
      f+2     :     0.000363
      f-2     :     0.000384
      f+3     :     0.000436
      f-3     :     0.000397
 11 Cls       :     5.881503  s :     5.881503
      pz      :     3.929397  p :    11.494941
      px      :     3.716401
      py      :     3.849144
      dz2     :     0.022407  d :     0.081447
      dxz     :     0.012419
      dyz     :     0.015724
      dx2y2   :     0.015993
      dxy     :     0.014904
      f0      :     0.001016  f :     0.005165
      f+1     :     0.000637
      f-1     :     0.000749
      f+2     :     0.000743
      f-2     :     0.000482
      f+3     :     0.000881
      f-3     :     0.000656


                      *****************************
                      * MAYER POPULATION ANALYSIS *
                      *****************************

  NA   - Mulliken gross atomic population
  ZA   - Total nuclear charge
  QA   - Mulliken gross atomic charge
  VA   - Mayer's total valence
  BVA  - Mayer's bonded valence
  FA   - Mayer's free valence

  ATOM       NA         ZA         QA         VA         BVA        FA
  0 C      6.2747     6.0000    -0.2747     3.8709     3.7560     0.1149
  1 N      7.2562     7.0000    -0.2562     3.4016     3.2569     0.1447
  2 H      0.8206     1.0000     0.1794     0.9884     0.9696     0.0188
  3 H      0.8502     1.0000     0.1498     0.9635     0.9448     0.0187
  4 H      0.8473     1.0000     0.1527     0.9650     0.9462     0.0188
  5 H      0.7533     1.0000     0.2467     1.0341     1.0101     0.0239
  6 H      0.7023     1.0000     0.2977     0.9819     0.9610     0.0209
  7 H      0.7589     1.0000     0.2411     0.9503     0.9279     0.0223
  8 Pb    21.1073    22.0000     0.8927     2.1194     1.7215     0.3980
  9 Cl    17.4912    17.0000    -0.4912     1.0790     0.7870     0.2920
 10 Cl    17.5142    17.0000    -0.5142     1.0606     0.7748     0.2857
 11 Cl    17.6237    17.0000    -0.6237     0.8517     0.5793     0.2724

  Mayer bond orders larger than 0.1
B(  0-C ,  1-N ) :   0.8850 B(  0-C ,  2-H ) :   0.9382 B(  0-C ,  3-H ) :   0.9528 
B(  0-C ,  4-H ) :   0.9513 B(  1-N ,  5-H ) :   0.7707 B(  1-N ,  6-H ) :   0.7913 
B(  1-N ,  7-H ) :   0.8719 B(  5-H , 11-Cl) :   0.2286 B(  6-H ,  9-Cl) :   0.1758 
B(  8-Pb,  9-Cl) :   0.6305 B(  8-Pb, 10-Cl) :   0.7427 B(  8-Pb, 11-Cl) :   0.3278 



-------
TIMINGS
-------

Total time                :  870.310 sec
Integral trafo            :    2.779 sec (  0.3%)
I/O of integrals          :    0.133 sec (  0.0%)
K(i,j) Operators          :   10.415 sec (  1.2%)
T(i,j) pair energies      :    1.543 sec (  0.2%)
V-calculation             :    0.015 sec (  0.0%)
V**(-1/2)                 :    0.030 sec (  0.0%)
Gamma(ia|P)               :   10.067 sec (  1.2%)
Gamma-Trafo               :    1.349 sec (  0.2%)
D(virtual)                :    4.447 sec (  0.5%)
D(internal)               :    4.663 sec (  0.5%)
W(virtual)                :    8.911 sec (  1.0%)
W(internal)               :   16.367 sec (  1.9%)
L(virtual)                :    5.632 sec (  0.6%)
L(internal)               :    0.236 sec (  0.0%)
G(D)                      :   15.500 sec (  1.8%)
G(Z)                      :   15.860 sec (  1.8%)
Z-Vector Solution         :  642.590 sec ( 73.8%)
Z-Vector Solution         :  642.590 sec ( 73.8%)
3-Index Derivative 
+ Separable RIJ part      :    5.503 sec (  0.6%)
2-Index Derivative 
+ Separable RIJ part      :    0.043 sec (  0.0%)
Separable Gradient (COSX) :  121.421 sec ( 14.0%)


---------------------------------------
MP2 TOTAL ENERGY:    -1669.410579622 Eh
---------------------------------------

The final MP2 gradient
  0:   0.00155250  -0.00331975   0.00124021
  1:   0.03143102  -0.04133020   0.03290413
  2:   0.00479731   0.00144759   0.00483455
  3:  -0.00284168   0.00224752   0.00230499
  4:   0.00253033   0.00271468  -0.00230080
  5:  -0.02173109  -0.00350275  -0.00028692
  6:   0.00094617   0.00013196  -0.00622101
  7:  -0.01371200  -0.00954188  -0.00937720
  8:  -0.01919484  -0.02815727  -0.00475364
  9:   0.02696280  -0.00563304   0.03269390
 10:  -0.02774128   0.03216870  -0.00526558
 11:   0.01706251   0.05254876  -0.04582781

-----------------------------------
NORM OF THE MP2 GRADIENT:  0.121521
-----------------------------------

Entering the calculation of the dispersion correction...

Checking the input atom types...

Done


-------------------------------------------------------------------------------
                          DFT DISPERSION CORRECTION                            
                                                                               
                                DFTD3 V2.1  Rev 6                               
                          USING Becke-Johnson damping                          
-------------------------------------------------------------------------------
The B2PLYP functional is recognized
Active option DFTDOPT                   ...         4   

molecular C6(AA) [au] = 5306.830239 


            DFT-D V3
 parameters
 s6 scaling factor         :     0.6400 
 a1 scaling factor         :     0.3065 
 s8 scaling factor         :     0.9147 
 a2 scaling factor         :     5.0570 
 ad hoc parameters k1-k3   :    16.0000     1.3333    -4.0000 

 Edisp/kcal,au: -7.550040183039  -0.012031753606 
 E6   /kcal   :  -3.486716850 
 E8   /kcal   :  -4.063323333 
 % E8         :  53.818565663 

-------------------------   ----------------
Dispersion correction           -0.012031754
-------------------------   ----------------


-------------------------   --------------------
FINAL SINGLE POINT ENERGY     -1669.422611375632
-------------------------   --------------------


                            ***************************************
                            *     ORCA property calculations      *
                            ***************************************


  WARNING: The energy has been calculated at the MP2 level but the densities
           used in the property calculations are still SCF densities
           MP2 response densities have not been calculated 
           use %mp2 Density relaxed end
           or  %mp2 Density unrelaxed end

                                    ---------------------
                                    Active property flags
                                    ---------------------
   (+) Dipole Moment


------------------------------------------------------------------------------
                       ORCA ELECTRIC PROPERTIES CALCULATION
------------------------------------------------------------------------------

Dipole Moment Calculation                       ... on
Quadrupole Moment Calculation                   ... off
Polarizability Calculation                      ... off
GBWName                                         ... PbMACl3_mp2_13.orca.gbw
Electron density file                           ... PbMACl3_mp2_13.orca.scfp.tmp

-------------
DIPOLE MOMENT
-------------
                                X             Y             Z
Electronic contribution:   -120.24159     -99.66160     -75.66151
Nuclear contribution   :    118.91767      99.85676      75.48845
                        -----------------------------------------
Total Dipole Moment    :     -1.32392       0.19516      -0.17306
                        -----------------------------------------
Magnitude (a.u.)       :      1.34937
Magnitude (Debye)      :      3.42983


                         *** MP2 UNRELAXED DENSITY ***

------------------------------------------------------------------------------
                       ORCA ELECTRIC PROPERTIES CALCULATION
------------------------------------------------------------------------------

Dipole Moment Calculation                       ... on
Quadrupole Moment Calculation                   ... off
Polarizability Calculation                      ... off
GBWName                                         ... PbMACl3_mp2_13.orca.gbw
Electron density file                           ... PbMACl3_mp2_13.orca.pmp2ur

-------------
DIPOLE MOMENT
-------------
                                X             Y             Z
Electronic contribution:   -120.13434     -99.59914     -75.63064
Nuclear contribution   :    118.91767      99.85676      75.48845
                        -----------------------------------------
Total Dipole Moment    :     -1.21668       0.25762      -0.14219
                        -----------------------------------------
Magnitude (a.u.)       :      1.25175
Magnitude (Debye)      :      3.18171


                           *** MP2 RELAXED DENSITY ***

------------------------------------------------------------------------------
                       ORCA ELECTRIC PROPERTIES CALCULATION
------------------------------------------------------------------------------

Dipole Moment Calculation                       ... on
Quadrupole Moment Calculation                   ... off
Polarizability Calculation                      ... off
GBWName                                         ... PbMACl3_mp2_13.orca.gbw
Electron density file                           ... PbMACl3_mp2_13.orca.pmp2re

-------------
DIPOLE MOMENT
-------------
                                X             Y             Z
Electronic contribution:   -119.90231     -99.49236     -75.53208
Nuclear contribution   :    118.91767      99.85676      75.48845
                        -----------------------------------------
Total Dipole Moment    :     -0.98464       0.36440      -0.04363
                        -----------------------------------------
Magnitude (a.u.)       :      1.05081
Magnitude (Debye)      :      2.67096


Timings for individual modules:

Sum of individual times         ...     1304.642 sec (=  21.744 min)
GTO integral calculation        ...        5.722 sec (=   0.095 min)   0.4 %
SCF iterations                  ...      427.376 sec (=   7.123 min)  32.8 %
MP2 module                      ...      871.544 sec (=  14.526 min)  66.8 %
                             ****ORCA TERMINATED NORMALLY****
TOTAL RUN TIME: 0 days 0 hours 21 minutes 46 seconds 852 msec
