
                                 *****************
                                 * O   R   C   A *
                                 *****************

           --- An Ab Initio, DFT and Semiempirical electronic structure package ---

                  #######################################################
                  #                        -***-                        #
                  #  Department of molecular theory and spectroscopy    #
                  #              Directorship: Frank Neese              #
                  # Max Planck Institute for Chemical Energy Conversion #
                  #                  D-45470 Muelheim/Ruhr              #
                  #                       Germany                       #
                  #                                                     #
                  #                  All rights reserved                #
                  #                        -***-                        #
                  #######################################################


                         Program Version 3.0.3 - RELEASE   -


 With contributions from (in alphabetic order):
   Ute Becker             : Parallelization
   Dmytro Bykov           : SCF Hessian
   Dmitry Ganyushin       : Spin-Orbit,Spin-Spin,Magnetic field MRCI
   Andreas Hansen         : Spin unrestricted coupled pair/coupled cluster methods
   Dimitrios Liakos       : Extrapolation schemes; parallel MDCI
   Robert Izsak           : Overlap fitted RIJCOSX, COSX-SCS-MP3
   Christian Kollmar      : KDIIS, OOCD, Brueckner-CCSD(T), CCSD density
   Simone Kossmann        : Meta GGA functionals, TD-DFT gradient, OOMP2, MP2 Hessian
   Taras Petrenko         : DFT Hessian,TD-DFT gradient, ASA and ECA modules, normal mode analysis, Resonance Raman, ABS, FL, XAS/XES, NRVS
   Christoph Reimann      : Effective Core Potentials
   Michael Roemelt        : Restricted open shell CIS
   Christoph Riplinger    : Improved optimizer, TS searches, QM/MM, DLPNO-CCSD
   Barbara Sandhoefer     : DKH picture change effects
   Igor Schapiro          : Molecular dynamics
   Kantharuban Sivalingam : CASSCF convergence, NEVPT2
   Boris Wezisla          : Elementary symmetry handling
   Frank Wennmohs         : Technical directorship


 We gratefully acknowledge several colleagues who have allowed us to
 interface, adapt or use parts of their codes:
   Stefan Grimme, W. Hujo, H. Kruse, T. Risthaus : VdW corrections, initial TS optimization,
                                                   DFT functionals, gCP
   Ed Valeev                                     : LibInt (2-el integral package), F12 methods
   Garnet Chan, S. Sharma, R. Olivares           : DMRG
   Ulf Ekstrom                                   : XCFun DFT Library
   Mihaly Kallay                                 : mrcc  (arbitrary order and MRCC methods)
   Andreas Klamt, Michael Diedenhofen            : otool_cosmo (COSMO solvation model)
   Frank Weinhold                                : gennbo (NPA and NBO analysis)
   Christopher J. Cramer and Donald G. Truhlar   : smd solvation model


 Your calculation uses the libint2 library for the computation of 2-el integrals
 For citations please refer to: http://libint.valeyev.net

 This ORCA versions uses:
   CBLAS   interface :  Fast vector & matrix operations
   LAPACKE interface :  Fast linear algebra routines
   SCALAPACK package :  Parallel linear algebra routines


Your calculation utilizes the basis: Ahlrichs-TZV
Cite in your paper:
H - Kr: A. Schaefer, H. Horn and R. Ahlrichs, J. Chem. Phys. 97, 2571 (1992).

The def2-TZV basis will be loaded
Cite in your paper:
 	F. Weigend, R. Ahlrichs, Phys. Chem. Chem. Phys. 2005, 7, 3297.

Your calculation utilizes the atom-pairwise dispersion correction
with the Becke-Johnson damping scheme (D3BJ)
Cite in your paper:
S.Grimme, S.Ehrlich, L.Goerigk, J Comput Chem, (2011), 32, 1456–1465 
S.Grimme, J.Antony, S.Ehrlich and H.Krieg, J.Chem.Phys., 132, (2010), 154104 
   

================================================================================
                                        WARNINGS
                       Please study these warnings very carefully!
================================================================================

WARNING: The RI method has been chosen with no auxiliary basis (AUX or GTOAUX in BASIS block)
        Standard TZV/J expansion basis used (GTOAUX=TZV_J)

Now building the actual basis set
cite the ECPs for Pb [SD(60,MDF)] as follows:
  B. Metz, H. Stoll, M. Dolg, J. Chem. Phys. 113, 2563 (2000).

ECP parameters for Pb [SD(60,MDF)] have been obtained from:
  pseudopotential library of the Stuttgart/Cologne group
  http://www.theochem.uni-stuttgart.de/pseudopotentials/

cite the ECP basis sets for Pb [DEF2-TZVP] as follows:
  F. Weigend, R. Ahlrichs; Phys. Chem. Chem. Phys. 7, 3297(2005).

ECP basis sets for Pb [DEF2-TZVP] have been obtained from:
  Turbomole basis set library
  ftp://ftp.chemie.uni-karlsruhe.de/pub/basen/



INFO   : the flag for use of LIBINT has been found!

================================================================================
                                       INPUT FILE
================================================================================
NAME = PbCl6NH3CH3-2_mp2_sp_4.orca
|  1> ! RIJCOSX RI-B2PLYP D3BJ def2-TZVP ECP{def2-TZVP} TIGHTSCF Grid5 FinalGrid6 MORead
|  2> %method
|  3>  RunTyp Gradient
|  4>  end
|  5> %maxcore 1000
|  6> %moinp "previous.gbw"
|  7> *xyz -2 1
|  8> C 2.821971 3.493173 2.716929 
|  9> N 2.031893 2.485380 2.005967 
| 10> H 3.493737 3.003675 3.431461 
| 11> H 2.156449 4.174155 3.259759 
| 12> H 3.419280 4.070497 2.001994 
| 13> H 1.424368 1.881241 2.639320 
| 14> H 2.617127 1.787701 1.451958 
| 15> H 1.353302 2.890520 1.291746 
| 16> Pb 0.112092 -0.008235 0.254288 
| 17> Cl 3.186425 0.284579 0.328021 
| 18> Cl 0.012832 3.048107 -0.145907 
| 19> Cl 0.157261 0.475133 3.259834 
| 20> Cl -2.985534 -0.340635 0.200139 
| 21> Cl 0.040981 -0.494421 -2.871440 
| 22> Cl 0.182132 -3.124694 0.572689 
| 23> N -1.884966 -2.527607 -1.578982 
| 24> C -2.664881 -3.549172 -2.281400 
| 25> H -2.474954 -1.829497 -1.031708 
| 26> H -1.279571 -1.925402 -2.215561 
| 27> H -3.259633 -4.123288 -1.561779 
| 28> H -1.991792 -4.230944 -2.813775 
| 29> H -3.338231 -3.073756 -3.003955 
| 30> H -1.204879 -2.923566 -0.859634 
| 31> *
| 32> 
| 33>                          ****END OF INPUT****
================================================================================

                     *******************************
                     * Energy+Gradient Calculation *
                     *******************************

---------------------------------
CARTESIAN COORDINATES (ANGSTROEM)
---------------------------------
  C      2.821971    3.493173    2.716929
  N      2.031893    2.485380    2.005967
  H      3.493737    3.003675    3.431461
  H      2.156449    4.174155    3.259759
  H      3.419280    4.070497    2.001994
  H      1.424368    1.881241    2.639320
  H      2.617127    1.787701    1.451958
  H      1.353302    2.890520    1.291746
  Pb     0.112092   -0.008235    0.254288
  Cl     3.186425    0.284579    0.328021
  Cl     0.012832    3.048107   -0.145907
  Cl     0.157261    0.475133    3.259834
  Cl    -2.985534   -0.340635    0.200139
  Cl     0.040981   -0.494421   -2.871440
  Cl     0.182132   -3.124694    0.572689
  N     -1.884966   -2.527607   -1.578982
  C     -2.664881   -3.549172   -2.281400
  H     -2.474954   -1.829497   -1.031708
  H     -1.279571   -1.925402   -2.215561
  H     -3.259633   -4.123288   -1.561779
  H     -1.991792   -4.230944   -2.813775
  H     -3.338231   -3.073756   -3.003955
  H     -1.204879   -2.923566   -0.859634

----------------------------
CARTESIAN COORDINATES (A.U.)
----------------------------
  NO LB      ZA    FRAG    MASS        X           Y           Z
   0 C     6.0000    0    12.011          5.332752347867888          6.601140308408101          5.134251735308532
   1 N     7.0000    0    14.007          3.839721303431654          4.696687538725200          3.790728263683611
   2 H     1.0000    0     1.008          6.602206113947632          5.676123145305915          6.484521529231552
   3 H     1.0000    0     1.008          4.075098031768349          7.888009790538062          6.160051772585005
   4 H     1.0000    0     1.008          6.461502775194258          7.692124558948052          3.783220381753542
   5 H     1.0000    0     1.008          2.691665433921146          3.555030281904149          4.987591979781038
   6 H     1.0000    0     1.008          4.945653287690924          3.378265299337155          2.743802977956033
   7 H     1.0000    0     1.008          2.557370156487898          5.462291184622056          2.441046174588241
   8 Pb   22.0000*   0   207.200  0.211823181803501  -0.015561894712842  0.480534679142567
   9 Cl   17.0000    0    35.453          6.021470596280024          0.537776373465176          0.619869856174983
  10 Cl   17.0000    0    35.453          0.024248965750478          5.760087456888304         -0.275724271022048
  11 Cl   17.0000    0    35.453          0.297180221546590          0.897871247188406          6.160193502045050
  12 Cl   17.0000    0    35.453         -5.641841623510450         -0.643706861628266          0.378207898716865
  13 Cl   17.0000    0    35.453          0.077442866694227         -0.934320284859479         -5.426235209986840
  14 Cl   17.0000    0    35.453          0.344179600223345         -5.904815912306931          1.082225369909228
  15 N     7.0000    0    14.007         -3.562069511753006         -4.776485004182294         -2.983843550391246
  16 C     6.0000    0    12.011         -5.035895269490199         -6.706963082181557         -4.311221201927943
  17 H     1.0000    0     1.008         -4.676985254052937         -3.457248292830528         -1.949645570175627
  18 H     1.0000    0     1.008         -2.418038758907750         -3.638482477704246         -4.186803522996702
  19 H     1.0000    0     1.008         -6.159813667092132         -7.791885091283890         -2.951334591709398
  20 H     1.0000    0     1.008         -3.763941395735278         -7.995325447957316         -5.317264152474270
  21 H     1.0000    0     1.008         -6.308342361766074         -5.808557042497251         -5.676652268623413
  22 H     1.0000    0     1.008         -2.276891334512904         -5.524739074443619         -1.624472835407261
* core charge reduced due to ECP

--------------------------------
INTERNAL COORDINATES (ANGSTROEM)
--------------------------------
 C      0   0   0   0.000000     0.000     0.000
 N      1   0   0   1.464697     0.000     0.000
 H      1   2   0   1.096099   109.861     0.000
 H      1   2   3   1.096048   109.899   239.985
 H      1   2   3   1.095999   109.864   119.972
 H      2   1   3   1.065461   114.153    59.908
 H      2   1   3   1.065918   113.984   299.878
 H      2   1   3   1.065240   114.041   179.989
 Pb     7   2   1   3.306811    97.343   179.869
 Cl     7   2   1   1.961303   163.504   177.375
 Cl     8   2   1   1.971938   162.222   174.683
 Cl     6   2   1   1.991918   161.470   182.649
 Cl     9   7   2   3.115880   144.819   359.552
 Cl     9   7   2   3.164113   117.275   128.032
 Cl     9   7   2   3.133465   119.106   230.750
 N     13   9   7   3.026445    74.085   179.111
 C     16  13   9   1.464668   126.320   178.359
 H     16  13   9   1.065341    12.338   187.244
 H     16  13   9   1.065076    98.597   307.134
 H     17  16  13   1.095990   109.842   302.376
 H     17  16  13   1.096031   109.864   182.425
 H     17  16  13   1.096132   109.921    62.387
 H     16  13   9   1.066191    95.952    52.837

---------------------------
INTERNAL COORDINATES (A.U.)
---------------------------
 C      0   0   0   0.000000     0.000     0.000
 N      1   0   0   2.767876     0.000     0.000
 H      1   2   0   2.071328   109.861     0.000
 H      1   2   3   2.071230   109.899   239.985
 H      1   2   3   2.071137   109.864   119.972
 H      2   1   3   2.013429   114.153    59.908
 H      2   1   3   2.014293   113.984   299.878
 H      2   1   3   2.013011   114.041   179.989
 Pb     7   2   1   6.248967    97.343   179.869
 Cl     7   2   1   3.706326   163.504   177.375
 Cl     8   2   1   3.726423   162.222   174.683
 Cl     6   2   1   3.764180   161.470   182.649
 Cl     9   7   2   5.888160   144.819   359.552
 Cl     9   7   2   5.979306   117.275   128.032
 Cl     9   7   2   5.921390   119.106   230.750
 N     13   9   7   5.719152    74.085   179.111
 C     16  13   9   2.767822   126.320   178.359
 H     16  13   9   2.013203    12.338   187.244
 H     16  13   9   2.012702    98.597   307.134
 H     17  16  13   2.071120   109.842   302.376
 H     17  16  13   2.071199   109.864   182.425
 H     17  16  13   2.071390   109.921    62.387
 H     16  13   9   2.014809    95.952    52.837

---------------------
BASIS SET INFORMATION
---------------------
There are 5 groups of distinct atoms

 Group   1 Type C   : 11s6p2d1f contracted to 5s3p2d1f pattern {62111/411/11/1}
 Group   2 Type N   : 11s6p2d1f contracted to 5s3p2d1f pattern {62111/411/11/1}
 Group   3 Type H   : 5s1p contracted to 3s1p pattern {311/1}
 Group   4 Type Pb  : 10s9p8d2f contracted to 6s5p3d2f pattern {421111/33111/611/11}
 Group   5 Type Cl  : 14s9p3d1f contracted to 5s5p2d1f pattern {73211/51111/21/1}

Atom   0C    basis set group =>   1
Atom   1N    basis set group =>   2
Atom   2H    basis set group =>   3
Atom   3H    basis set group =>   3
Atom   4H    basis set group =>   3
Atom   5H    basis set group =>   3
Atom   6H    basis set group =>   3
Atom   7H    basis set group =>   3
Atom   8Pb   basis set group =>   4
Atom   9Cl   basis set group =>   5
Atom  10Cl   basis set group =>   5
Atom  11Cl   basis set group =>   5
Atom  12Cl   basis set group =>   5
Atom  13Cl   basis set group =>   5
Atom  14Cl   basis set group =>   5
Atom  15N    basis set group =>   2
Atom  16C    basis set group =>   1
Atom  17H    basis set group =>   3
Atom  18H    basis set group =>   3
Atom  19H    basis set group =>   3
Atom  20H    basis set group =>   3
Atom  21H    basis set group =>   3
Atom  22H    basis set group =>   3
-------------------------------
AUXILIARY BASIS SET INFORMATION
-------------------------------
There are 5 groups of distinct atoms

 Group   1 Type C   : 12s5p4d2f1g contracted to 6s4p3d1f1g pattern {711111/2111/211/2/1}
 Group   2 Type N   : 12s5p4d2f1g contracted to 6s4p3d1f1g pattern {711111/2111/211/2/1}
 Group   3 Type H   : 5s2p1d contracted to 3s1p1d pattern {311/2/1}
 Group   4 Type Pb  : 31s12p8d6f3g contracted to 31s12p8d6f3g pattern {1111111111111111111111111111111/111111111111/11111111/111111/111}
 Group   5 Type Cl  : 14s5p5d2f1g contracted to 8s4p3d1f1g pattern {71111111/2111/311/2/1}

Atom   0C    basis set group =>   1
Atom   1N    basis set group =>   2
Atom   2H    basis set group =>   3
Atom   3H    basis set group =>   3
Atom   4H    basis set group =>   3
Atom   5H    basis set group =>   3
Atom   6H    basis set group =>   3
Atom   7H    basis set group =>   3
Atom   8Pb   basis set group =>   4
Atom   9Cl   basis set group =>   5
Atom  10Cl   basis set group =>   5
Atom  11Cl   basis set group =>   5
Atom  12Cl   basis set group =>   5
Atom  13Cl   basis set group =>   5
Atom  14Cl   basis set group =>   5
Atom  15N    basis set group =>   2
Atom  16C    basis set group =>   1
Atom  17H    basis set group =>   3
Atom  18H    basis set group =>   3
Atom  19H    basis set group =>   3
Atom  20H    basis set group =>   3
Atom  21H    basis set group =>   3
Atom  22H    basis set group =>   3

-------------------------
ECP PARAMETER INFORMATION
-------------------------

 Group 1, Type Pb ECP SD(60,MDF) (replacing 60 core electrons, lmax=5)

Atom   8Pb   ECP group =>   1


------------------------------------------------------------------------------
                           ORCA GTO INTEGRAL CALCULATION
                           -- RI-GTO INTEGRALS CHOSEN --
------------------------------------------------------------------------------

                         BASIS SET STATISTICS AND STARTUP INFO

Gaussian basis set:
 # of primitive gaussian shells          ...  343
 # of primitive gaussian functions       ...  749
 # of contracted shells                  ...  186
 # of contracted basis functions         ...  468
 Highest angular momentum                ...    3
 Maximum contraction depth               ...    7
Auxiliary gaussian basis set:
 # of primitive gaussian shells          ...  414
 # of primitive gaussian functions       ... 1110
 # of contracted shells                  ...  282
 # of contracted aux-basis functions     ...  810
 Highest angular momentum                ...    4
 Maximum contraction depth               ...    7
Ratio of auxiliary to basis functions    ...  1.73
Integral package used                  ... LIBINT
 One Electron integrals                  
   ECP integrals                         ... done
 Ordering auxiliary basis shells         ... done
 Integral threshhold             Thresh  ...  2.500e-11
 Primitive cut-off               TCut    ...  2.500e-12
 Pre-screening matrix                    ... done
 Shell pair data                         ... 
 Ordering of the shell pairs             ... done (   0.002 sec) 11331 of 17391 pairs
 Determination of significant pairs      ... done (   0.000 sec)
 Creation of shell pair data             ... done (   0.004 sec)
 Storage of shell pair data              ... done (   0.002 sec)
 Shell pair data done in (   0.008 sec)
 Computing two index integrals           ... done
 Cholesky decomposition of the V-matrix  ... done


Timings:
 Total evaluation time                   ...   1.307 sec (  0.022 min)
 One electron matrix time                ...   0.749 sec (  0.012 min) = 57.3%
 Schwartz matrix evaluation time         ...   0.469 sec (  0.008 min) = 35.9%
 Two index repulsion integral time       ...   0.027 sec (  0.000 min) =  2.1%
 Cholesky decomposition of V             ...   0.025 sec (  0.000 min) =  1.9%
 Three index repulsion integral time     ...   0.000 sec (  0.000 min) =  0.0%

-------------------------------------------------------------------------------
                                 ORCA SCF
-------------------------------------------------------------------------------

------------
SCF SETTINGS
------------
Hamiltonian:
 Density Functional     Method          .... DFT(GTOs)
 Exchange Functional    Exchange        .... B88
   X-Alpha parameter    XAlpha          ....  0.666667
   Becke's b parameter  XBeta           ....  0.004200
 Correlation Functional Correlation     .... LYP
 LDA part of GGA corr.  LDAOpt          .... VWN-3
 Gradients option       PostSCFGGA      .... off
 Hybrid DFT is turned on
   Fraction HF Exchange ScalHFX         ....  0.530000
   Scaling of DF-GGA-X  ScalDFX         ....  0.470000
   Scaling of DF-GGA-C  ScalDFC         ....  0.730000
   Scaling of DF-LDA-C  ScalLDAC        ....  0.730000
   Perturbative correction              ....  0.270000
 RI-approximation to the Coulomb term is turned on
   Number of auxiliary basis functions  .... 810
   RIJ-COSX (HFX calculated with COS-X)).... on


General Settings:
 Integral files         IntName         .... PbCl6NH3CH3-2_mp2_sp_4.orca
 Hartree-Fock type      HFTyp           .... RHF
 Total Charge           Charge          ....   -2
 Multiplicity           Mult            ....    1
 Number of Electrons    NEL             ....  164
 Basis Dimension        Dim             ....  468
 Nuclear Repulsion      ENuc            ....   1552.9586369156 Eh

Convergence Acceleration:
 DIIS                   CNVDIIS         .... on
   Start iteration      DIISMaxIt       ....    12
   Startup error        DIISStart       ....  0.200000
   # of expansion vecs  DIISMaxEq       ....     5
   Bias factor          DIISBfac        ....   1.050
   Max. coefficient     DIISMaxC        ....  10.000
 Newton-Raphson         CNVNR           .... off
 SOSCF                  CNVSOSCF        .... on
   Start iteration      SOSCFMaxIt      ....   150
   Startup grad/error   SOSCFStart      ....  0.003300
 Level Shifting         CNVShift        .... on
   Level shift para.    LevelShift      ....    0.2500
   Turn off err/grad.   ShiftErr        ....    0.0010
 Zerner damping         CNVZerner       .... off
 Static damping         CNVDamp         .... on
   Fraction old density DampFac         ....    0.7000
   Max. Damping (<1)    DampMax         ....    0.9800
   Min. Damping (>=0)   DampMin         ....    0.0000
   Turn off err/grad.   DampErr         ....    0.1000
 Fernandez-Rico         CNVRico         .... off

SCF Procedure:
 Maximum # iterations   MaxIter         ....   125
 SCF integral mode      SCFMode         .... Direct
   Integral package                     .... LIBINT
 Reset frequeny         DirectResetFreq ....    20
 Integral Threshold     Thresh          ....  2.500e-11 Eh
 Primitive CutOff       TCut            ....  2.500e-12 Eh

Convergence Tolerance:
 Convergence Check Mode ConvCheckMode   .... Total+1el-Energy
 Energy Change          TolE            ....  1.000e-08 Eh
 1-El. energy change                    ....  1.000e-05 Eh
 Orbital Gradient       TolG            ....  1.000e-05
 Orbital Rotation angle TolX            ....  1.000e-05
 DIIS Error             TolErr          ....  5.000e-07


Diagonalization of the overlap matrix:
Smallest eigenvalue                        ... 1.082e-03
Time for diagonalization                   ...    0.075 sec
Threshold for overlap eigenvalues          ... 1.000e-08
Number of eigenvalues below threshold      ... 0
Time for construction of square roots      ...    0.031 sec
Total time needed                          ...    0.108 sec

---------------------
INITIAL GUESS: MOREAD
---------------------
Guess MOs are being read from file: previous.gbw
Input geometry compatible with but different from current geometry
Input basis set matches current basis set (good)
MOs were renormalized
MOs were reorthogonalized (Schmidt)
                      ------------------
                      INITIAL GUESS DONE (   0.9 sec)
                      ------------------
-------------------
DFT GRID GENERATION
-------------------

General Integration Accuracy     IntAcc      ...  5.010
Radial Grid Type                 RadialGrid  ... Gauss-Chebyshev
Angular Grid (max. acc.)         AngularGrid ... Lebedev-434
Angular grid pruning method      GridPruning ... 3 (G Style)
Weight generation scheme         WeightScheme... Becke
Basis function cutoff            BFCut       ...    1.0000e-11
Integration weight cutoff        WCut        ...    1.0000e-14
Grids for H and He will be reduced by one unit

# of grid points (after initial pruning)     ... 212974 (   0.1 sec)
# of grid points (after weights+screening)   ... 196006 (   1.1 sec)
nearest neighbour list constructed           ...    0.0 sec
Grid point re-assignment to atoms done       ...    0.1 sec
Grid point division into batches done        ...    1.6 sec
Reduced shell lists constructed in    7.8 sec

Total number of grid points                  ...   196006
Total number of batches                      ...     3076
Average number of points per batch           ...       63
Average number of grid points per atom       ...     8522
Average number of shells per batch           ...    68.12 (36.62%)
Average number of basis functions per batch  ...   172.44 (36.85%)
Average number of large shells per batch     ...    46.11 (67.69%)
Average number of large basis fcns per batch ...   115.46 (66.96%)
Maximum spatial batch extension              ...  30.33, 28.57, 30.33 au
Average spatial batch extension              ...   2.11,  2.08,  2.10 au

Time for grid setup =    9.054 sec

--------------------
COSX GRID GENERATION
--------------------

General Integration Accuracy     IntAcc      ...  3.340
Radial Grid Type                 RadialGrid  ... Gauss-Chebyshev
Angular Grid (max. acc.)         AngularGrid ... Lebedev-50
Angular grid pruning method      GridPruning ... 3 (G Style)
Weight generation scheme         WeightScheme... Becke
Basis function cutoff            BFCut       ...    1.0000e-11
Integration weight cutoff        WCut        ...    1.0000e-14
Grids for H and He will be reduced by one unit

# of grid points (after initial pruning)     ...  11762 (   0.0 sec)
# of grid points (after weights+screening)   ...  10914 (   0.1 sec)
nearest neighbour list constructed           ...    0.0 sec
Grid point re-assignment to atoms done       ...    0.0 sec
Grid point division into batches done        ...    0.0 sec
Reduced shell lists constructed in    0.4 sec

Total number of grid points                  ...    10914
Total number of batches                      ...      184
Average number of points per batch           ...       59
Average number of grid points per atom       ...      475
Average number of shells per batch           ...    86.66 (46.59%)
Average number of basis functions per batch  ...   224.33 (47.93%)
Average number of large shells per batch     ...    59.30 (68.43%)
Average number of large basis fcns per batch ...   150.92 (67.28%)
Maximum spatial batch extension              ...  24.64, 20.80, 23.13 au
Average spatial batch extension              ...   5.47,  5.18,  5.19 au

Overlap Fitting                  UseSFitting ... on
Constructing numerical overlap ... done (      0.3 sec)
Inverting numerical overlap    ... done (      0.0 sec)
Obtaining analytic overlap     ... done (      0.0 sec)
Final contraction and storage  ... done (      0.0 sec)


General Integration Accuracy     IntAcc      ...  3.670
Radial Grid Type                 RadialGrid  ... Gauss-Chebyshev
Angular Grid (max. acc.)         AngularGrid ... Lebedev-50
Angular grid pruning method      GridPruning ... 3 (G Style)
Weight generation scheme         WeightScheme... Becke
Basis function cutoff            BFCut       ...    1.0000e-11
Integration weight cutoff        WCut        ...    1.0000e-14
Grids for H and He will be reduced by one unit

# of grid points (after initial pruning)     ...  14690 (   0.0 sec)
# of grid points (after weights+screening)   ...  13608 (   0.1 sec)
nearest neighbour list constructed           ...    0.0 sec
Grid point re-assignment to atoms done       ...    0.0 sec
Grid point division into batches done        ...    0.0 sec
Reduced shell lists constructed in    0.7 sec

Total number of grid points                  ...    13608
Total number of batches                      ...      222
Average number of points per batch           ...       61
Average number of grid points per atom       ...      592
Average number of shells per batch           ...    84.57 (45.47%)
Average number of basis functions per batch  ...   218.38 (46.66%)
Average number of large shells per batch     ...    57.57 (68.08%)
Average number of large basis fcns per batch ...   145.65 (66.69%)
Maximum spatial batch extension              ...  25.36, 22.24, 24.01 au
Average spatial batch extension              ...   5.04,  4.85,  5.03 au

Overlap Fitting                  UseSFitting ... on
Constructing numerical overlap ... done (      0.3 sec)
Inverting numerical overlap    ... done (      0.0 sec)
Obtaining analytic overlap     ... done (      0.0 sec)
Final contraction and storage  ... done (      0.0 sec)


General Integration Accuracy     IntAcc      ...  4.010
Radial Grid Type                 RadialGrid  ... Gauss-Chebyshev
Angular Grid (max. acc.)         AngularGrid ... Lebedev-110
Angular grid pruning method      GridPruning ... 3 (G Style)
Weight generation scheme         WeightScheme... Becke
Basis function cutoff            BFCut       ...    1.0000e-11
Integration weight cutoff        WCut        ...    1.0000e-14
Grids for H and He will be reduced by one unit

# of grid points (after initial pruning)     ...  27082 (   0.0 sec)
# of grid points (after weights+screening)   ...  25302 (   0.1 sec)
nearest neighbour list constructed           ...    0.0 sec
Grid point re-assignment to atoms done       ...    0.0 sec
Grid point division into batches done        ...    0.0 sec
Reduced shell lists constructed in    1.0 sec

Total number of grid points                  ...    25302
Total number of batches                      ...      405
Average number of points per batch           ...       62
Average number of grid points per atom       ...     1100
Average number of shells per batch           ...    80.24 (43.14%)
Average number of basis functions per batch  ...   206.46 (44.12%)
Average number of large shells per batch     ...    54.61 (68.06%)
Average number of large basis fcns per batch ...   138.78 (67.22%)
Maximum spatial batch extension              ...  28.58, 26.40, 26.98 au
Average spatial batch extension              ...   4.25,  4.04,  4.10 au

Overlap Fitting                  UseSFitting ... on
Constructing numerical overlap ... done (      0.6 sec)
Inverting numerical overlap    ... done (      0.0 sec)
Obtaining analytic overlap     ... done (      0.0 sec)
Final contraction and storage  ... done (      0.0 sec)

Time for X-Grid setup             =    3.816 sec
--------------
SCF ITERATIONS
--------------
ITER       Energy         Delta-E        Max-DP      RMS-DP      [F,P]     Damp
               ***  Starting incremental Fock matrix formation  ***
  0  -3145.5417145973   0.000000000000 0.00281017  0.00002963  0.0385142 0.7000
                      *** Initiating the SOSCF procedure ***
                      *** Re-Reading the Fockian *** 
                      *** Removing any level shift *** 
ITER      Energy       Delta-E        Grad      Rot      Max-DP    RMS-DP
  1  -3145.54185371  -0.0001391115  0.000551  0.000551  0.008546  0.000094
               *** Restarting incremental Fock matrix formation ***
  2  -3145.54221207  -0.0003583658  0.000682  0.002273  0.001935  0.000036
  3  -3145.54223892  -0.0000268457  0.000452  0.000392  0.001557  0.000015
  4  -3145.54224960  -0.0000106747  0.000100  0.000130  0.000357  0.000004
  5  -3145.54224984  -0.0000002451  0.000038  0.000031  0.000105  0.000001
  6  -3145.54224998  -0.0000001414  0.000006  0.000017  0.000030  0.000000
  7  -3145.54224995   0.0000000339  0.000004  0.000004  0.000008  0.000000
                  ***Gradient check signals convergence***
              ***Rediagonalizing the Fockian in SOSCF/NRSCF***

               *****************************************************
               *                     SUCCESS                       *
               *           SCF CONVERGED AFTER   8 CYCLES          *
               *****************************************************

Old exchange energy                            =   -110.583002447 Eh
New exchange energy                            =   -110.591004393 Eh
Exchange energy change after final integration =     -0.008001945 Eh
Total energy after final integration           =  -3145.550251885 Eh
Final COS-X integration done in                =    69.136 sec

----------------
TOTAL SCF ENERGY
----------------

Total Energy       :        -3145.55025188 Eh          -85594.77391 eV

Components:
Nuclear Repulsion  :         1552.95863692 Eh           42258.15287 eV
Electronic Energy  :        -4698.50888880 Eh         -127852.92678 eV

One Electron Energy:        -7554.43601110 Eh         -205566.65467 eV
Two Electron Energy:         2855.92712230 Eh           77713.72789 eV

Virial components:
Potential Energy   :        -6157.89410674 Eh         -167564.81748 eV
Kinetic Energy     :         3012.34385486 Eh           81970.04357 eV
Virial Ratio       :            2.04422018


DFT components:
N(Alpha)           :       81.999984765113 electrons
N(Beta)            :       81.999984765113 electrons
N(Total)           :      163.999969530227 electrons
E(X)               :      -98.136597160377 Eh       
E(C)               :       -4.634430016965 Eh       
E(XC)              :     -102.771027177342 Eh       

---------------
SCF CONVERGENCE
---------------

  Last Energy change         ...    8.1882e-09  Tolerance :   1.0000e-08
  Last MAX-Density change    ...    1.1957e-13  Tolerance :   1.0000e-07
  Last RMS-Density change    ...    1.0168e-15  Tolerance :   5.0000e-09
  Last Orbital Gradient      ...    7.5561e-07  Tolerance :   1.0000e-05
  Last Orbital Rotation      ...    1.7228e-06  Tolerance :   1.0000e-05

             **** THE GBW FILE WAS UPDATED (PbCl6NH3CH3-2_mp2_sp_4.orca.gbw) ****
             **** DENSITY FILE WAS UPDATED (PbCl6NH3CH3-2_mp2_sp_4.orca.scfp.tmp) ****
             **** ENERGY FILE WAS UPDATED (PbCl6NH3CH3-2_mp2_sp_4.orca.en.tmp) ****
----------------
ORBITAL ENERGIES
----------------

  NO   OCC          E(Eh)            E(eV) 
   0   2.0000    -102.586865     -2791.5305 
   1   2.0000    -102.584536     -2791.4671 
   2   2.0000    -102.584409     -2791.4637 
   3   2.0000    -102.581321     -2791.3796 
   4   2.0000    -102.580430     -2791.3554 
   5   2.0000    -102.576377     -2791.2451 
   6   2.0000     -14.694735      -399.8641 
   7   2.0000     -14.690607      -399.7517 
   8   2.0000     -10.491828      -285.4972 
   9   2.0000     -10.490951      -285.4733 
  10   2.0000      -9.593509      -261.0527 
  11   2.0000      -9.591190      -260.9896 
  12   2.0000      -9.591107      -260.9873 
  13   2.0000      -9.587855      -260.8988 
  14   2.0000      -9.586893      -260.8726 
  15   2.0000      -9.582646      -260.7570 
  16   2.0000      -7.229951      -196.7370 
  17   2.0000      -7.229657      -196.7290 
  18   2.0000      -7.228972      -196.7103 
  19   2.0000      -7.227602      -196.6731 
  20   2.0000      -7.227495      -196.6701 
  21   2.0000      -7.227372      -196.6668 
  22   2.0000      -7.227307      -196.6650 
  23   2.0000      -7.226659      -196.6474 
  24   2.0000      -7.226569      -196.6449 
  25   2.0000      -7.224268      -196.5823 
  26   2.0000      -7.224053      -196.5765 
  27   2.0000      -7.223348      -196.5573 
  28   2.0000      -7.223294      -196.5558 
  29   2.0000      -7.223116      -196.5510 
  30   2.0000      -7.222396      -196.5314 
  31   2.0000      -7.219053      -196.4404 
  32   2.0000      -7.218866      -196.4353 
  33   2.0000      -7.218194      -196.4170 
  34   2.0000      -5.567820      -151.5081 
  35   2.0000      -3.338376       -90.8418 
  36   2.0000      -3.337769       -90.8253 
  37   2.0000      -3.337613       -90.8211 
  38   2.0000      -0.881372       -23.9834 
  39   2.0000      -0.880091       -23.9485 
  40   2.0000      -0.726354       -19.7651 
  41   2.0000      -0.726237       -19.7619 
  42   2.0000      -0.725405       -19.7393 
  43   2.0000      -0.724029       -19.7018 
  44   2.0000      -0.723925       -19.6990 
  45   2.0000      -0.634970       -17.2784 
  46   2.0000      -0.633625       -17.2418 
  47   2.0000      -0.604513       -16.4496 
  48   2.0000      -0.603329       -16.4174 
  49   2.0000      -0.598566       -16.2878 
  50   2.0000      -0.597973       -16.2717 
  51   2.0000      -0.595717       -16.2103 
  52   2.0000      -0.590616       -16.0715 
  53   2.0000      -0.411884       -11.2079 
  54   2.0000      -0.411679       -11.2024 
  55   2.0000      -0.411060       -11.1855 
  56   2.0000      -0.410828       -11.1792 
  57   2.0000      -0.364000        -9.9049 
  58   2.0000      -0.363307        -9.8861 
  59   2.0000      -0.293848        -7.9960 
  60   2.0000      -0.291189        -7.9237 
  61   2.0000      -0.290994        -7.9184 
  62   2.0000      -0.290937        -7.9168 
  63   2.0000      -0.290828        -7.9138 
  64   2.0000      -0.114844        -3.1251 
  65   2.0000      -0.110004        -2.9934 
  66   2.0000      -0.109471        -2.9789 
  67   2.0000      -0.098767        -2.6876 
  68   2.0000      -0.089568        -2.4373 
  69   2.0000      -0.087943        -2.3930 
  70   2.0000      -0.087573        -2.3830 
  71   2.0000      -0.084452        -2.2981 
  72   2.0000      -0.084137        -2.2895 
  73   2.0000      -0.082932        -2.2567 
  74   2.0000      -0.081910        -2.2289 
  75   2.0000      -0.080115        -2.1800 
  76   2.0000      -0.078326        -2.1314 
  77   2.0000      -0.077790        -2.1168 
  78   2.0000      -0.076920        -2.0931 
  79   2.0000      -0.076054        -2.0695 
  80   2.0000      -0.070340        -1.9141 
  81   2.0000      -0.047912        -1.3038 
  82   0.0000       0.240904         6.5553 
  83   0.0000       0.241006         6.5581 
  84   0.0000       0.252311         6.8657 
  85   0.0000       0.254154         6.9159 
  86   0.0000       0.256736         6.9861 
  87   0.0000       0.305956         8.3255 
  88   0.0000       0.306946         8.3524 
  89   0.0000       0.307155         8.3581 
  90   0.0000       0.307995         8.3810 
  91   0.0000       0.308037         8.3821 
  92   0.0000       0.309291         8.4162 
  93   0.0000       0.375440        10.2162 
  94   0.0000       0.376814        10.2536 
  95   0.0000       0.379111        10.3161 
  96   0.0000       0.380751        10.3608 
  97   0.0000       0.412445        11.2232 
  98   0.0000       0.413001        11.2383 
  99   0.0000       0.413790        11.2598 
 100   0.0000       0.414338        11.2747 
 101   0.0000       0.443444        12.0667 
 102   0.0000       0.455721        12.4008 
 103   0.0000       0.488780        13.3004 
 104   0.0000       0.489983        13.3331 
 105   0.0000       0.492507        13.4018 
 106   0.0000       0.494097        13.4451 
 107   0.0000       0.503884        13.7114 
 108   0.0000       0.506134        13.7726 
 109   0.0000       0.517631        14.0854 
 110   0.0000       0.524431        14.2705 
 111   0.0000       0.524777        14.2799 
 112   0.0000       0.540541        14.7089 
 113   0.0000       0.548988        14.9387 
 114   0.0000       0.551045        14.9947 
 115   0.0000       0.588166        16.0048 
 116   0.0000       0.588525        16.0146 
 117   0.0000       0.591774        16.1030 
 118   0.0000       0.602775        16.4023 
 119   0.0000       0.616281        16.7699 
 120   0.0000       0.636175        17.3112 
 121   0.0000       0.637624        17.3506 
 122   0.0000       0.639269        17.3954 
 123   0.0000       0.661540        18.0014 
 124   0.0000       0.666483        18.1359 
 125   0.0000       0.667183        18.1550 
 126   0.0000       0.678425        18.4609 
 127   0.0000       0.680766        18.5246 
 128   0.0000       0.681997        18.5581 
 129   0.0000       0.682880        18.5821 
 130   0.0000       0.692264        18.8374 
 131   0.0000       0.693615        18.8742 
 132   0.0000       0.700830        19.0706 
 133   0.0000       0.709168        19.2975 
 134   0.0000       0.710442        19.3321 
 135   0.0000       0.725002        19.7283 
 136   0.0000       0.727282        19.7903 
 137   0.0000       0.732382        19.9291 
 138   0.0000       0.733973        19.9724 
 139   0.0000       0.740674        20.1548 
 140   0.0000       0.741562        20.1789 
 141   0.0000       0.746908        20.3244 
 142   0.0000       0.747373        20.3371 
 143   0.0000       0.748142        20.3580 
 144   0.0000       0.762082        20.7373 
 145   0.0000       0.763272        20.7697 
 146   0.0000       0.771960        21.0061 
 147   0.0000       0.772836        21.0299 
 148   0.0000       0.777104        21.1461 
 149   0.0000       0.778278        21.1780 
 150   0.0000       0.783330        21.3155 
 151   0.0000       0.803664        21.8688 
 152   0.0000       0.807203        21.9651 
 153   0.0000       0.808400        21.9977 
 154   0.0000       0.810009        22.0415 
 155   0.0000       0.812136        22.0993 
 156   0.0000       0.813211        22.1286 
 157   0.0000       0.814838        22.1729 
 158   0.0000       0.820514        22.3273 
 159   0.0000       0.822239        22.3743 
 160   0.0000       0.828753        22.5515 
 161   0.0000       0.835679        22.7400 
 162   0.0000       0.838832        22.8258 
 163   0.0000       0.840784        22.8789 
 164   0.0000       0.857064        23.3219 
 165   0.0000       0.858756        23.3679 
 166   0.0000       0.863600        23.4998 
 167   0.0000       0.889057        24.1925 
 168   0.0000       0.909773        24.7562 
 169   0.0000       0.921885        25.0858 
 170   0.0000       0.922993        25.1159 
 171   0.0000       0.927741        25.2451 
 172   0.0000       0.931195        25.3391 
 173   0.0000       0.952917        25.9302 
 174   0.0000       0.964491        26.2451 
 175   0.0000       0.969863        26.3913 
 176   0.0000       0.972233        26.4558 
 177   0.0000       0.974195        26.5092 
 178   0.0000       0.976389        26.5689 
 179   0.0000       0.982213        26.7274 
 180   0.0000       0.983750        26.7692 
 181   0.0000       1.003211        27.2988 
 182   0.0000       1.003962        27.3192 
 183   0.0000       1.019888        27.7526 
 184   0.0000       1.047080        28.4925 
 185   0.0000       1.050936        28.5974 
 186   0.0000       1.063988        28.9526 
 187   0.0000       1.064847        28.9760 
 188   0.0000       1.070340        29.1254 
 189   0.0000       1.071161        29.1478 
 190   0.0000       1.072506        29.1844 
 191   0.0000       1.075360        29.2620 
 192   0.0000       1.076449        29.2917 
 193   0.0000       1.122012        30.5315 
 194   0.0000       1.124407        30.5967 
 195   0.0000       1.143412        31.1138 
 196   0.0000       1.148263        31.2458 
 197   0.0000       1.149220        31.2719 
 198   0.0000       1.188672        32.3454 
 199   0.0000       1.194783        32.5117 
 200   0.0000       1.220478        33.2109 
 201   0.0000       1.225800        33.3557 
 202   0.0000       1.266213        34.4554 
 203   0.0000       1.312602        35.7177 
 204   0.0000       1.326222        36.0883 
 205   0.0000       1.331398        36.2292 
 206   0.0000       1.408519        38.3277 
 207   0.0000       1.411660        38.4132 
 208   0.0000       1.414299        38.4850 
 209   0.0000       1.417415        38.5698 
 210   0.0000       1.436780        39.0968 
 211   0.0000       1.440144        39.1883 
 212   0.0000       1.441289        39.2195 
 213   0.0000       1.458249        39.6810 
 214   0.0000       1.459405        39.7124 
 215   0.0000       1.525051        41.4987 
 216   0.0000       1.560278        42.4573 
 217   0.0000       1.564169        42.5632 
 218   0.0000       1.579296        42.9748 
 219   0.0000       1.670432        45.4548 
 220   0.0000       1.680962        45.7413 
 221   0.0000       1.689148        45.9640 
 222   0.0000       1.695751        46.1437 
 223   0.0000       1.705604        46.4118 
 224   0.0000       1.711373        46.5688 
 225   0.0000       1.775873        48.3240 
 226   0.0000       1.776436        48.3393 
 227   0.0000       1.817332        49.4521 
 228   0.0000       1.820065        49.5265 
 229   0.0000       1.826183        49.6930 
 230   0.0000       1.828915        49.7673 
 231   0.0000       1.844939        50.2034 
 232   0.0000       1.848002        50.2867 
 233   0.0000       1.849637        50.3312 
 234   0.0000       1.852788        50.4169 
 235   0.0000       1.976124        53.7731 
 236   0.0000       1.989534        54.1380 
 237   0.0000       2.023935        55.0741 
 238   0.0000       2.024937        55.1013 
 239   0.0000       2.027198        55.1629 
 240   0.0000       2.029815        55.2341 
 241   0.0000       2.118093        57.6362 
 242   0.0000       2.118692        57.6525 
 243   0.0000       2.123010        57.7700 
 244   0.0000       2.123399        57.7806 
 245   0.0000       2.158112        58.7252 
 246   0.0000       2.166462        58.9524 
 247   0.0000       2.169445        59.0336 
 248   0.0000       2.169722        59.0411 
 249   0.0000       2.175428        59.1964 
 250   0.0000       2.178598        59.2827 
 251   0.0000       2.179375        59.3038 
 252   0.0000       2.181422        59.3595 
 253   0.0000       2.184032        59.4305 
 254   0.0000       2.185268        59.4642 
 255   0.0000       2.211427        60.1760 
 256   0.0000       2.215381        60.2836 
 257   0.0000       2.223425        60.5025 
 258   0.0000       2.223867        60.5145 
 259   0.0000       2.224658        60.5360 
 260   0.0000       2.225241        60.5519 
 261   0.0000       2.235130        60.8210 
 262   0.0000       2.245232        61.0959 
 263   0.0000       2.246129        61.1203 
 264   0.0000       2.247594        61.1601 
 265   0.0000       2.253538        61.3219 
 266   0.0000       2.253863        61.3307 
 267   0.0000       2.268926        61.7406 
 268   0.0000       2.270678        61.7883 
 269   0.0000       2.287134        62.2361 
 270   0.0000       2.289628        62.3039 
 271   0.0000       2.295658        62.4680 
 272   0.0000       2.297515        62.5185 
 273   0.0000       2.298661        62.5498 
 274   0.0000       2.303566        62.6832 
 275   0.0000       2.355529        64.0972 
 276   0.0000       2.357022        64.1378 
 277   0.0000       2.365695        64.3738 
 278   0.0000       2.370245        64.4976 
 279   0.0000       2.371442        64.5302 
 280   0.0000       2.408151        65.5291 
 281   0.0000       2.411245        65.6133 
 282   0.0000       2.412993        65.6609 
 283   0.0000       2.420864        65.8751 
 284   0.0000       2.424804        65.9823 
 285   0.0000       2.425632        66.0048 
 286   0.0000       2.429697        66.1154 
 287   0.0000       2.449859        66.6641 
 288   0.0000       2.451956        66.7211 
 289   0.0000       2.453537        66.7641 
 290   0.0000       2.454476        66.7897 
 291   0.0000       2.458182        66.8905 
 292   0.0000       2.459678        66.9312 
 293   0.0000       2.465023        67.0767 
 294   0.0000       2.467976        67.1571 
 295   0.0000       2.490545        67.7712 
 296   0.0000       2.504450        68.1495 
 297   0.0000       2.505260        68.1716 
 298   0.0000       2.505677        68.1829 
 299   0.0000       2.509836        68.2961 
 300   0.0000       2.511354        68.3374 
 301   0.0000       2.512594        68.3712 
 302   0.0000       2.516031        68.4647 
 303   0.0000       2.516500        68.4775 
 304   0.0000       2.516911        68.4886 
 305   0.0000       2.517493        68.5045 
 306   0.0000       2.519660        68.5634 
 307   0.0000       2.519894        68.5698 
 308   0.0000       2.521755        68.6204 
 309   0.0000       2.529981        68.8443 
 310   0.0000       2.530852        68.8680 
 311   0.0000       2.531570        68.8875 
 312   0.0000       2.535826        69.0033 
 313   0.0000       2.536458        69.0205 
 314   0.0000       2.543043        69.1997 
 315   0.0000       2.545017        69.2534 
 316   0.0000       2.546419        69.2916 
 317   0.0000       2.552307        69.4518 
 318   0.0000       2.556544        69.5671 
 319   0.0000       2.557561        69.5948 
 320   0.0000       2.569105        69.9089 
 321   0.0000       2.570882        69.9572 
 322   0.0000       2.576630        70.1137 
 323   0.0000       2.577286        70.1315 
 324   0.0000       2.591589        70.5207 
 325   0.0000       2.593200        70.5646 
 326   0.0000       2.599853        70.7456 
 327   0.0000       2.606328        70.9218 
 328   0.0000       2.609796        71.0161 
 329   0.0000       2.615374        71.1679 
 330   0.0000       2.628181        71.5164 
 331   0.0000       2.632834        71.6431 
 332   0.0000       2.634097        71.6774 
 333   0.0000       2.635996        71.7291 
 334   0.0000       2.639825        71.8333 
 335   0.0000       2.642211        71.8982 
 336   0.0000       2.645103        71.9769 
 337   0.0000       2.653472        72.2047 
 338   0.0000       2.655423        72.2577 
 339   0.0000       2.657457        72.3131 
 340   0.0000       2.658331        72.3369 
 341   0.0000       2.661222        72.4155 
 342   0.0000       2.700643        73.4882 
 343   0.0000       2.711117        73.7732 
 344   0.0000       2.712909        73.8220 
 345   0.0000       2.715369        73.8889 
 346   0.0000       2.723472        74.1094 
 347   0.0000       2.728274        74.2401 
 348   0.0000       2.740081        74.5614 
 349   0.0000       2.745993        74.7223 
 350   0.0000       2.755716        74.9868 
 351   0.0000       2.781585        75.6908 
 352   0.0000       2.782463        75.7147 
 353   0.0000       2.784990        75.7834 
 354   0.0000       2.785057        75.7853 
 355   0.0000       2.797758        76.1309 
 356   0.0000       2.799852        76.1879 
 357   0.0000       2.843847        77.3850 
 358   0.0000       2.846538        77.4582 
 359   0.0000       2.851845        77.6026 
 360   0.0000       2.852388        77.6174 
 361   0.0000       2.898714        78.8780 
 362   0.0000       2.922771        79.5326 
 363   0.0000       2.928511        79.6888 
 364   0.0000       2.987028        81.2812 
 365   0.0000       2.998248        81.5865 
 366   0.0000       3.000854        81.6574 
 367   0.0000       3.015208        82.0480 
 368   0.0000       3.030397        82.4613 
 369   0.0000       3.036189        82.6189 
 370   0.0000       3.059458        83.2521 
 371   0.0000       3.069909        83.5365 
 372   0.0000       3.077651        83.7471 
 373   0.0000       3.083125        83.8961 
 374   0.0000       3.096859        84.2698 
 375   0.0000       3.111139        84.6584 
 376   0.0000       3.152086        85.7726 
 377   0.0000       3.182999        86.6138 
 378   0.0000       3.327450        90.5445 
 379   0.0000       3.359420        91.4145 
 380   0.0000       3.360685        91.4489 
 381   0.0000       3.363315        91.5205 
 382   0.0000       3.364295        91.5471 
 383   0.0000       3.378311        91.9285 
 384   0.0000       3.444600        93.7323 
 385   0.0000       3.449045        93.8533 
 386   0.0000       3.451451        93.9188 
 387   0.0000       3.454428        93.9998 
 388   0.0000       3.472910        94.5027 
 389   0.0000       3.525667        95.9383 
 390   0.0000       3.552533        96.6693 
 391   0.0000       3.594635        97.8150 
 392   0.0000       3.595542        97.8397 
 393   0.0000       3.788102       103.0795 
 394   0.0000       3.791518       103.1724 
 395   0.0000       3.810395       103.6861 
 396   0.0000       3.811729       103.7224 
 397   0.0000       3.815658       103.8293 
 398   0.0000       3.816513       103.8526 
 399   0.0000       4.028657       109.6253 
 400   0.0000       4.034755       109.7913 
 401   0.0000       4.035806       109.8199 
 402   0.0000       4.039693       109.9256 
 403   0.0000       4.168197       113.4224 
 404   0.0000       4.171755       113.5192 
 405   0.0000       4.429935       120.5447 
 406   0.0000       4.431679       120.5921 
 407   0.0000       4.437603       120.7533 
 408   0.0000       4.438988       120.7910 
 409   0.0000       4.643907       126.3671 
 410   0.0000       4.646266       126.4313 
 411   0.0000       4.659865       126.8014 
 412   0.0000       4.665438       126.9530 
 413   0.0000       5.125399       139.4692 
 414   0.0000       5.127620       139.5296 
 415   0.0000       5.130741       139.6146 
 416   0.0000       5.131982       139.6483 
 417   0.0000       5.237636       142.5233 
 418   0.0000       5.242607       142.6586 
 419   0.0000       5.246804       142.7728 
 420   0.0000       5.248910       142.8301 
 421   0.0000       5.339382       145.2920 
 422   0.0000       5.359593       145.8420 
 423   0.0000       5.372200       146.1850 
 424   0.0000       5.375329       146.2701 
 425   0.0000       5.382697       146.4706 
 426   0.0000       5.387051       146.5891 
 427   0.0000       5.577977       151.7845 
 428   0.0000       5.586356       152.0125 
 429   0.0000       5.748410       156.4222 
 430   0.0000       5.751794       156.5143 
 431   0.0000       5.755377       156.6118 
 432   0.0000       5.757954       156.6819 
 433   0.0000       6.046448       164.5322 
 434   0.0000       6.054538       164.7524 
 435   0.0000      11.297944       307.4327 
 436   0.0000      11.299470       307.4742 
 437   0.0000      11.312875       307.8390 
 438   0.0000      11.325161       308.1733 
 439   0.0000      11.330651       308.3227 
 440   0.0000      11.333697       308.4056 
 441   0.0000      11.344481       308.6990 
 442   0.0000      11.358941       309.0925 
 443   0.0000      11.366364       309.2945 
 444   0.0000      11.367243       309.3184 
 445   0.0000      11.368919       309.3640 
 446   0.0000      11.370048       309.3947 
 447   0.0000      11.372503       309.4615 
 448   0.0000      11.389686       309.9291 
 449   0.0000      11.392030       309.9929 
 450   0.0000      11.402378       310.2745 
 451   0.0000      11.427291       310.9524 
 452   0.0000      11.429980       311.0256 
 453   0.0000      22.904757       623.2701 
 454   0.0000      22.914946       623.5474 
 455   0.0000      25.319949       688.9908 
 456   0.0000      25.344075       689.6474 
 457   0.0000      25.435244       692.1282 
 458   0.0000      25.443960       692.3654 
 459   0.0000      25.523339       694.5254 
 460   0.0000      25.593682       696.4395 
 461   0.0000      32.673961       889.1037 
 462   0.0000      32.704908       889.9458 
 463   0.0000      35.890469       976.6293 
 464   0.0000      36.022435       980.2203 
 465   0.0000      36.027147       980.3485 
 466   0.0000      36.179072       984.4826 
 467   0.0000     123.870644      3370.6916 

                    ********************************
                    * MULLIKEN POPULATION ANALYSIS *
                    ********************************

-----------------------
MULLIKEN ATOMIC CHARGES
-----------------------
   0 C :   -0.243661
   1 N :   -0.303764
   2 H :    0.114563
   3 H :    0.113568
   4 H :    0.115789
   5 H :    0.269165
   6 H :    0.274138
   7 H :    0.271509
   8 Pb:    1.118435
   9 Cl:   -0.718965
  10 Cl:   -0.718252
  11 Cl:   -0.712967
  12 Cl:   -0.727071
  13 Cl:   -0.737960
  14 Cl:   -0.730597
  15 N :   -0.290540
  16 C :   -0.243030
  17 H :    0.269216
  18 H :    0.263164
  19 H :    0.116574
  20 H :    0.115884
  21 H :    0.114098
  22 H :    0.270704
Sum of atomic charges:   -2.0000000

--------------------------------
MULLIKEN REDUCED ORBITAL CHARGES
--------------------------------
  0 C s       :     3.241285  s :     3.241285
      pz      :     0.997011  p :     2.915818
      px      :     0.981815
      py      :     0.936991
      dz2     :     0.007888  d :     0.080104
      dxz     :     0.020815
      dyz     :     0.019452
      dx2y2   :     0.012391
      dxy     :     0.019557
      f0      :     0.000297  f :     0.006454
      f+1     :     0.000602
      f-1     :     0.000842
      f+2     :     0.000684
      f-2     :     0.002511
      f+3     :     0.000663
      f-3     :     0.000855
  1 N s       :     3.413005  s :     3.413005
      pz      :     1.297552  p :     3.840319
      px      :     1.289003
      py      :     1.253764
      dz2     :     0.004056  d :     0.048173
      dxz     :     0.013112
      dyz     :     0.012216
      dx2y2   :     0.006370
      dxy     :     0.012419
      f0      :     0.000136  f :     0.002267
      f+1     :     0.000201
      f-1     :     0.000208
      f+2     :     0.000208
      f-2     :     0.001065
      f+3     :     0.000224
      f-3     :     0.000226
  2 H s       :     0.864409  s :     0.864409
      pz      :     0.008080  p :     0.021028
      px      :     0.007580
      py      :     0.005368
  3 H s       :     0.865417  s :     0.865417
      pz      :     0.006283  p :     0.021015
      px      :     0.007120
      py      :     0.007612
  4 H s       :     0.863159  s :     0.863159
      pz      :     0.007747  p :     0.021052
      px      :     0.006795
      py      :     0.006510
  5 H s       :     0.684841  s :     0.684841
      pz      :     0.012279  p :     0.045994
      px      :     0.016490
      py      :     0.017225
  6 H s       :     0.678887  s :     0.678887
      pz      :     0.014965  p :     0.046975
      px      :     0.011370
      py      :     0.020641
  7 H s       :     0.681731  s :     0.681731
      pz      :     0.020397  p :     0.046760
      px      :     0.018916
      py      :     0.007448
  8 Pbs       :     4.015986  s :     4.015986
      pz      :     2.236583  p :     6.705336
      px      :     2.234716
      py      :     2.234037
      dz2     :     2.043506  d :    10.134700
      dxz     :     2.014735
      dyz     :     2.016822
      dx2y2   :     2.044571
      dxy     :     2.015066
      f0      :     0.005976  f :     0.025542
      f+1     :     0.003601
      f-1     :     0.004222
      f+2     :     0.002000
      f-2     :     0.000268
      f+3     :     0.004469
      f-3     :     0.005005
  9 Cls       :     5.957892  s :     5.957892
      pz      :     3.945018  p :    11.752534
      px      :     3.893415
      py      :     3.914102
      dz2     :     0.001009  d :     0.008214
      dxz     :     0.000792
      dyz     :     0.002417
      dx2y2   :     0.002917
      dxy     :     0.001079
      f0      :     0.000046  f :     0.000325
      f+1     :     0.000040
      f-1     :     0.000034
      f+2     :     0.000066
      f-2     :     0.000058
      f+3     :     0.000069
      f-3     :     0.000012
 10 Cls       :     5.958303  s :     5.958303
      pz      :     3.928991  p :    11.751523
      px      :     3.935568
      py      :     3.886964
      dz2     :     0.001319  d :     0.008113
      dxz     :     0.002957
      dyz     :     0.000790
      dx2y2   :     0.002522
      dxy     :     0.000525
      f0      :     0.000018  f :     0.000314
      f+1     :     0.000100
      f-1     :     0.000028
      f+2     :     0.000084
      f-2     :     0.000020
      f+3     :     0.000014
      f-3     :     0.000050
 11 Cls       :     5.958554  s :     5.958554
      pz      :     3.886972  p :    11.745931
      px      :     3.938962
      py      :     3.919997
      dz2     :     0.003472  d :     0.008176
      dxz     :     0.000944
      dyz     :     0.001106
      dx2y2   :     0.000415
      dxy     :     0.002240
      f0      :     0.000103  f :     0.000306
      f+1     :     0.000017
      f-1     :     0.000024
      f+2     :     0.000006
      f-2     :     0.000056
      f+3     :     0.000061
      f-3     :     0.000039
 12 Cls       :     5.959141  s :     5.959141
      pz      :     3.940113  p :    11.760385
      px      :     3.897946
      py      :     3.922326
      dz2     :     0.000934  d :     0.007270
      dxz     :     0.000672
      dyz     :     0.002276
      dx2y2   :     0.002573
      dxy     :     0.000816
      f0      :     0.000032  f :     0.000274
      f+1     :     0.000035
      f-1     :     0.000041
      f+2     :     0.000058
      f-2     :     0.000042
      f+3     :     0.000054
      f-3     :     0.000012
 13 Cls       :     5.960618  s :     5.960618
      pz      :     3.905093  p :    11.770928
      px      :     3.940048
      py      :     3.925787
      dz2     :     0.002522  d :     0.006203
      dxz     :     0.000713
      dyz     :     0.000807
      dx2y2   :     0.000347
      dxy     :     0.001813
      f0      :     0.000069  f :     0.000212
      f+1     :     0.000011
      f-1     :     0.000015
      f+2     :     0.000004
      f-2     :     0.000040
      f+3     :     0.000042
      f-3     :     0.000030
 14 Cls       :     5.958964  s :     5.958964
      pz      :     3.933420  p :    11.764280
      px      :     3.934529
      py      :     3.896331
      dz2     :     0.001088  d :     0.007089
      dxz     :     0.002626
      dyz     :     0.000626
      dx2y2   :     0.002266
      dxy     :     0.000483
      f0      :     0.000017  f :     0.000264
      f+1     :     0.000078
      f-1     :     0.000025
      f+2     :     0.000069
      f-2     :     0.000019
      f+3     :     0.000011
      f-3     :     0.000043
 15 N s       :     3.409444  s :     3.409444
      pz      :     1.296182  p :     3.830844
      px      :     1.287189
      py      :     1.247473
      dz2     :     0.004036  d :     0.047991
      dxz     :     0.012975
      dyz     :     0.012180
      dx2y2   :     0.006387
      dxy     :     0.012413
      f0      :     0.000133  f :     0.002260
      f+1     :     0.000202
      f-1     :     0.000209
      f+2     :     0.000209
      f-2     :     0.001051
      f+3     :     0.000227
      f-3     :     0.000228
 16 C s       :     3.240620  s :     3.240620
      pz      :     0.998046  p :     2.915954
      px      :     0.984622
      py      :     0.933285
      dz2     :     0.007770  d :     0.080017
      dxz     :     0.020785
      dyz     :     0.019404
      dx2y2   :     0.012414
      dxy     :     0.019644
      f0      :     0.000295  f :     0.006439
      f+1     :     0.000597
      f-1     :     0.000847
      f+2     :     0.000679
      f-2     :     0.002483
      f+3     :     0.000668
      f-3     :     0.000870
 17 H s       :     0.684869  s :     0.684869
      pz      :     0.014967  p :     0.045915
      px      :     0.011012
      py      :     0.019936
 18 H s       :     0.692478  s :     0.692478
      pz      :     0.012070  p :     0.044358
      px      :     0.015873
      py      :     0.016415
 19 H s       :     0.862371  s :     0.862371
      pz      :     0.007808  p :     0.021055
      px      :     0.006761
      py      :     0.006485
 20 H s       :     0.863062  s :     0.863062
      pz      :     0.006193  p :     0.021054
      px      :     0.007230
      py      :     0.007630
 21 H s       :     0.864895  s :     0.864895
      pz      :     0.008195  p :     0.021007
      px      :     0.007587
      py      :     0.005224
 22 H s       :     0.683573  s :     0.683573
      pz      :     0.019818  p :     0.045723
      px      :     0.018622
      py      :     0.007283


                     *******************************
                     * LOEWDIN POPULATION ANALYSIS *
                     *******************************

----------------------
LOEWDIN ATOMIC CHARGES
----------------------
   0 C :   -0.325397
   1 N :    0.036443
   2 H :    0.109705
   3 H :    0.109223
   4 H :    0.110110
   5 H :    0.136496
   6 H :    0.132009
   7 H :    0.133194
   8 Pb:    0.256104
   9 Cl:   -0.514532
  10 Cl:   -0.514303
  11 Cl:   -0.503514
  12 Cl:   -0.532248
  13 Cl:   -0.562725
  14 Cl:   -0.540694
  15 N :    0.043371
  16 C :   -0.323494
  17 H :    0.137512
  18 H :    0.143712
  19 H :    0.110464
  20 H :    0.110235
  21 H :    0.109543
  22 H :    0.138787

-------------------------------
LOEWDIN REDUCED ORBITAL CHARGES
-------------------------------
  0 C s       :     2.849093  s :     2.849093
      pz      :     1.050369  p :     3.101235
      px      :     1.040779
      py      :     1.010086
      dz2     :     0.031009  d :     0.335570
      dxz     :     0.085838
      dyz     :     0.084807
      dx2y2   :     0.046003
      dxy     :     0.087914
      f0      :     0.004600  f :     0.039498
      f+1     :     0.004308
      f-1     :     0.006636
      f+2     :     0.004158
      f-2     :     0.006869
      f+3     :     0.005727
      f-3     :     0.007201
  1 N s       :     3.018822  s :     3.018822
      pz      :     1.267125  p :     3.780575
      px      :     1.263434
      py      :     1.250016
      dz2     :     0.014306  d :     0.154456
      dxz     :     0.040093
      dyz     :     0.038805
      dx2y2   :     0.021272
      dxy     :     0.039982
      f0      :     0.001218  f :     0.009704
      f+1     :     0.001113
      f-1     :     0.001469
      f+2     :     0.000989
      f-2     :     0.001927
      f+3     :     0.001351
      f-3     :     0.001637
  2 H s       :     0.830407  s :     0.830407
      pz      :     0.022446  p :     0.059888
      px      :     0.021088
      py      :     0.016354
  3 H s       :     0.830906  s :     0.830906
      pz      :     0.018028  p :     0.059871
      px      :     0.021098
      py      :     0.020745
  4 H s       :     0.829958  s :     0.829958
      pz      :     0.022739  p :     0.059932
      px      :     0.019143
      py      :     0.018050
  5 H s       :     0.719776  s :     0.719776
      pz      :     0.042130  p :     0.143728
      px      :     0.050062
      py      :     0.051537
  6 H s       :     0.719217  s :     0.719217
      pz      :     0.046079  p :     0.148774
      px      :     0.039200
      py      :     0.063495
  7 H s       :     0.719593  s :     0.719593
      pz      :     0.063431  p :     0.147213
      px      :     0.058368
      py      :     0.025414
  8 Pbs       :     3.940376  s :     3.940376
      pz      :     2.388397  p :     7.160318
      px      :     2.385479
      py      :     2.386443
      dz2     :     2.208340  d :    10.578359
      dxz     :     2.048579
      dyz     :     2.059566
      dx2y2   :     2.212589
      dxy     :     2.049285
      f0      :     0.015842  f :     0.064843
      f+1     :     0.009006
      f-1     :     0.010452
      f+2     :     0.004717
      f-2     :     0.000572
      f+3     :     0.011527
      f-3     :     0.012728
  9 Cls       :     5.853500  s :     5.853500
      pz      :     3.921476  p :    11.646524
      px      :     3.840367
      py      :     3.884681
      dz2     :     0.001548  d :     0.013808
      dxz     :     0.001004
      dyz     :     0.004386
      dx2y2   :     0.005211
      dxy     :     0.001660
      f0      :     0.000080  f :     0.000700
      f+1     :     0.000071
      f-1     :     0.000060
      f+2     :     0.000155
      f-2     :     0.000134
      f+3     :     0.000167
      f-3     :     0.000031
 10 Cls       :     5.853800  s :     5.853800
      pz      :     3.899057  p :    11.646215
      px      :     3.907160
      py      :     3.839998
      dz2     :     0.002153  d :     0.013615
      dxz     :     0.005358
      dyz     :     0.000836
      dx2y2   :     0.004769
      dxy     :     0.000498
      f0      :     0.000023  f :     0.000673
      f+1     :     0.000227
      f-1     :     0.000054
      f+2     :     0.000209
      f-2     :     0.000028
      f+3     :     0.000033
      f-3     :     0.000098
 11 Cls       :     5.849754  s :     5.849754
      pz      :     3.833067  p :    11.639247
      px      :     3.912762
      py      :     3.893417
      dz2     :     0.006298  d :     0.013855
      dxz     :     0.001210
      dyz     :     0.001753
      dx2y2   :     0.000471
      dxy     :     0.004122
      f0      :     0.000232  f :     0.000659
      f+1     :     0.000026
      f-1     :     0.000050
      f+2     :     0.000008
      f-2     :     0.000136
      f+3     :     0.000129
      f-3     :     0.000077
 12 Cls       :     5.860263  s :     5.860263
      pz      :     3.918752  p :    11.659233
      px      :     3.846107
      py      :     3.894374
      dz2     :     0.001447  d :     0.012170
      dxz     :     0.000823
      dyz     :     0.004132
      dx2y2   :     0.004550
      dxy     :     0.001217
      f0      :     0.000052  f :     0.000582
      f+1     :     0.000064
      f-1     :     0.000079
      f+2     :     0.000138
      f-2     :     0.000096
      f+3     :     0.000124
      f-3     :     0.000028
 13 Cls       :     5.871889  s :     5.871889
      pz      :     3.853121  p :    11.680235
      px      :     3.920755
      py      :     3.906359
      dz2     :     0.004317  d :     0.010158
      dxz     :     0.000950
      dyz     :     0.001282
      dx2y2   :     0.000383
      dxy     :     0.003226
      f0      :     0.000147  f :     0.000444
      f+1     :     0.000017
      f-1     :     0.000030
      f+2     :     0.000005
      f-2     :     0.000098
      f+3     :     0.000087
      f-3     :     0.000059
 14 Cls       :     5.863343  s :     5.863343
      pz      :     3.906628  p :    11.665075
      px      :     3.909512
      py      :     3.848936
      dz2     :     0.001747  d :     0.011719
      dxz     :     0.004681
      dyz     :     0.000645
      dx2y2   :     0.004178
      dxy     :     0.000469
      f0      :     0.000022  f :     0.000556
      f+1     :     0.000174
      f-1     :     0.000048
      f+2     :     0.000172
      f-2     :     0.000029
      f+3     :     0.000028
      f-3     :     0.000084
 15 N s       :     3.017814  s :     3.017814
      pz      :     1.266165  p :     3.775276
      px      :     1.262085
      py      :     1.247026
      dz2     :     0.014209  d :     0.153911
      dxz     :     0.039686
      dyz     :     0.038682
      dx2y2   :     0.021444
      dxy     :     0.039890
      f0      :     0.001198  f :     0.009628
      f+1     :     0.001094
      f-1     :     0.001493
      f+2     :     0.000983
      f-2     :     0.001854
      f+3     :     0.001340
      f-3     :     0.001665
 16 C s       :     2.849259  s :     2.849259
      pz      :     1.051119  p :     3.100684
      px      :     1.042075
      py      :     1.007489
      dz2     :     0.030702  d :     0.334126
      dxz     :     0.085336
      dyz     :     0.084157
      dx2y2   :     0.046157
      dxy     :     0.087774
      f0      :     0.004538  f :     0.039426
      f+1     :     0.004191
      f-1     :     0.006730
      f+2     :     0.004127
      f-2     :     0.006829
      f+3     :     0.005698
      f-3     :     0.007313
 17 H s       :     0.719315  s :     0.719315
      pz      :     0.045286  p :     0.143172
      px      :     0.037784
      py      :     0.060102
 18 H s       :     0.719831  s :     0.719831
      pz      :     0.041079  p :     0.136457
      px      :     0.047378
      py      :     0.048001
 19 H s       :     0.829572  s :     0.829572
      pz      :     0.022907  p :     0.059964
      px      :     0.019094
      py      :     0.017963
 20 H s       :     0.829810  s :     0.829810
      pz      :     0.017816  p :     0.059955
      px      :     0.021377
      py      :     0.020762
 21 H s       :     0.830594  s :     0.830594
      pz      :     0.022737  p :     0.059863
      px      :     0.021139
      py      :     0.015987
 22 H s       :     0.718706  s :     0.718706
      pz      :     0.060993  p :     0.142507
      px      :     0.056830
      py      :     0.024684


                      *****************************
                      * MAYER POPULATION ANALYSIS *
                      *****************************

  NA   - Mulliken gross atomic population
  ZA   - Total nuclear charge
  QA   - Mulliken gross atomic charge
  VA   - Mayer's total valence
  BVA  - Mayer's bonded valence
  FA   - Mayer's free valence

  ATOM       NA         ZA         QA         VA         BVA        FA
  0 C      6.2437     6.0000    -0.2437     3.9534     3.9534    -0.0000
  1 N      7.3038     7.0000    -0.3038     3.1116     3.1116    -0.0000
  2 H      0.8854     1.0000     0.1146     0.9669     0.9669    -0.0000
  3 H      0.8864     1.0000     0.1136     0.9660     0.9660    -0.0000
  4 H      0.8842     1.0000     0.1158     0.9668     0.9668     0.0000
  5 H      0.7308     1.0000     0.2692     1.0195     1.0195     0.0000
  6 H      0.7259     1.0000     0.2741     1.0189     1.0189    -0.0000
  7 H      0.7285     1.0000     0.2715     1.0203     1.0203    -0.0000
  8 Pb    20.8816    22.0000     1.1184     1.5415     1.5415     0.0000
  9 Cl    17.7190    17.0000    -0.7190     0.5128     0.5128    -0.0000
 10 Cl    17.7183    17.0000    -0.7183     0.5135     0.5135    -0.0000
 11 Cl    17.7130    17.0000    -0.7130     0.5222     0.5222     0.0000
 12 Cl    17.7271    17.0000    -0.7271     0.4984     0.4984     0.0000
 13 Cl    17.7380    17.0000    -0.7380     0.4797     0.4797    -0.0000
 14 Cl    17.7306    17.0000    -0.7306     0.4930     0.4930     0.0000
 15 N      7.2905     7.0000    -0.2905     3.1281     3.1281     0.0000
 16 C      6.2430     6.0000    -0.2430     3.9504     3.9504     0.0000
 17 H      0.7308     1.0000     0.2692     1.0228     1.0228     0.0000
 18 H      0.7368     1.0000     0.2632     1.0286     1.0286    -0.0000
 19 H      0.8834     1.0000     0.1166     0.9666     0.9666     0.0000
 20 H      0.8841     1.0000     0.1159     0.9665     0.9665    -0.0000
 21 H      0.8859     1.0000     0.1141     0.9659     0.9659     0.0000
 22 H      0.7293     1.0000     0.2707     1.0227     1.0227     0.0000

  Mayer bond orders larger than 0.1
B(  0-C ,  1-N ) :   0.9571 B(  0-C ,  2-H ) :   0.9796 B(  0-C ,  3-H ) :   0.9792 
B(  0-C ,  4-H ) :   0.9790 B(  1-N ,  5-H ) :   0.7693 B(  1-N ,  6-H ) :   0.7589 
B(  1-N ,  7-H ) :   0.7630 B(  5-H , 11-Cl) :   0.2533 B(  6-H ,  9-Cl) :   0.2645 
B(  7-H , 10-Cl) :   0.2604 B(  8-Pb,  9-Cl) :   0.2605 B(  8-Pb, 10-Cl) :   0.2649 
B(  8-Pb, 11-Cl) :   0.2816 B(  8-Pb, 12-Cl) :   0.2529 B(  8-Pb, 13-Cl) :   0.2405 
B(  8-Pb, 14-Cl) :   0.2471 B( 12-Cl, 17-H ) :   0.2582 B( 13-Cl, 18-H ) :   0.2542 
B( 14-Cl, 22-H ) :   0.2586 B( 15-N , 16-C ) :   0.9580 B( 15-N , 17-H ) :   0.7665 
B( 15-N , 18-H ) :   0.7756 B( 15-N , 22-H ) :   0.7666 B( 16-C , 19-H ) :   0.9784 
B( 16-C , 20-H ) :   0.9786 B( 16-C , 21-H ) :   0.9791 

-------
TIMINGS
-------

Total SCF time: 0 days 0 hours 6 min 52 sec 

Total time                  ....     412.303 sec
Sum of individual times     ....     340.160 sec  ( 82.5%)

Fock matrix formation       ....     324.978 sec  ( 78.8%)
  Coulomb formation         ....     269.925 sec  ( 83.1% of F)
  Split-RI-J                ....      22.252 sec  (  6.8% of F)
  Chain of spheres X        ....     316.721 sec  ( 97.5% of F)
  COS-X 1 center corr.      ....       0.000 sec  (  0.0% of F)
  XC integration            ....      55.170 sec  ( 17.0% of F)
    Basis function eval.    ....      26.384 sec  ( 47.8% of XC)
    Density eval.           ....      14.481 sec  ( 26.2% of XC)
    XC-Functional eval.     ....       2.377 sec  (  4.3% of XC)
    XC-Potential eval.      ....      10.502 sec  ( 19.0% of XC)
Diagonalization             ....       0.251 sec  (  0.1%)
Density matrix formation    ....       0.109 sec  (  0.0%)
Population analysis         ....       0.434 sec  (  0.1%)
Initial guess               ....       0.866 sec  (  0.2%)
Orbital Transformation      ....       0.000 sec  (  0.0%)
Orbital Orthonormalization  ....       0.851 sec  (  0.2%)
DIIS solution               ....       0.061 sec  (  0.0%)
SOSCF solution              ....       0.591 sec  (  0.1%)
Grid generation             ....      12.870 sec  (  3.1%)

------------------------------------------------------------------------------
                              ORCA MP2 CALCULATION
------------------------------------------------------------------------------


----------------------
RI-MP2 ENERGY+GRADIENT
----------------------
Dimension of the basis                    ...  468
Memory devoted to MP2                     ... 1000 MB   
Data format for buffers                   ... DOUBLE
Compression type for matrix containers    ... UNCOMPRESSED
Overall scaling of the MP2 energy         ...   2.700e-01 Eh
Calculating two index integrals           ... done (    0.021 sec)
Cholesky decomposition of the V-matrix    ... done
Cholesky decomposition of V**-1           ... done (    0.092 sec)

-----------------
RI-TRANSFORMATION (AUX index driven)
-----------------

Dimension of the orbital-basis         ... 468
Dimension of the aux-basis             ... 810
Transformation of internal MOs         ...    0-  81
Transformation of internal/external MOs...    0-  81 to   82- 467
Number Format for Storage              ... Double (8 Byte)
Integral mode                          ... Direct

First Phase: integral generation and transformation of MO indices
  Aux angular momentum 0               ... done (    2.589 sec)
  Aux angular momentum 1               ... done (    2.286 sec)
  Aux angular momentum 2               ... done (    2.697 sec)
  Aux angular momentum 3               ... done (    1.269 sec)
  Aux angular momentum 4               ... done (    1.217 sec)
Closing buffer VIJ ( 0.02 GB; CompressionRatio= 1.98)
Closing buffer VIA ( 0.19 GB; CompressionRatio= 1.00)
  Phase 1 completed in    10.174 sec
Second Phase: sorting and transformation of aux index

IJ-Transformation
Memory available                       ... 972 MB 
Max. # MO pairs treated in a batch     ... 82    
# of internal orbitals                 ... 82
# batches for internal orbitals        ... 1
Closing buffer IJV ( 0.02 GB; CompressionRatio= 1.00)
(ij|v) transformation done in     0.723 sec

IA-Transformation
Memory available                       ... 972 MB 
Max. # MO pairs treated in a batch     ... 82    
# of internal orbitals                 ... 82
# batches for internal orbitals        ... 1
Closing buffer IAV ( 0.19 GB; CompressionRatio= 1.00)
(ia|v) transformation done in     2.847 sec

  Phase 2 completed in     4.468 sec
RI-Integral transformation completed in    14.643 sec
Opening buffers                              ... done

Starting loop over batches of integrals:

Operator 0  - window                       ... (  0- 81)x( 82-467)
Operator 0  - Memory available             ...  1000 MB
Operator 0  - Memory needed per MO         ...   4.8 MB
Operator 0  - Number of orbitals per batch ... 82
Operator 0  - Number of batches            ... 1

OPERATOR  0   PASS   0:  MOs     0 ...   81
  Reading integrals       ... ok
  Internal MO   2
  Internal MO   5
  Internal MO   8
  Internal MO  11
  Internal MO  14
  Internal MO  17
  Internal MO  20
  Internal MO  23
  Internal MO  26
  Internal MO  29
  Internal MO  32
  Internal MO  35
  Internal MO  38
  Internal MO  41
  Internal MO  44
  Internal MO  47
  Internal MO  50
  Internal MO  53
  Internal MO  56
  Internal MO  59
  Internal MO  62
  Internal MO  65
  Internal MO  68
  Internal MO  71
  Internal MO  74
  Internal MO  77
  Internal MO  80
Closing buffer GIPV ( 0.23 GB; CompressionRatio= 1.00)
Time spent in pair loops =   728.462 sec

-----------------------------------------------
 RI-MP2 CORRELATION ENERGY:     -1.013067655 Eh
-----------------------------------------------


---------------------
MP2 DENSITY FORMATION
---------------------

Completing the external part of the density      ... done
Storing the unrelaxed density                    ... done

Calculating the xc-kernel                        ... done
Calculating G(D)                                 ... done
Completing the Lagrangian                        ... done
Solving the Z-vector equations                   ... 

------------------------------------------------------------------------------
                           ORCA CP-SCF CALCULATION
------------------------------------------------------------------------------

Input orbitals are from        ... PbCl6NH3CH3-2_mp2_sp_4.orca.gbw
Input Perturbation             ... PbCl6NH3CH3-2_mp2_sp_4.orca.pin.tmp
Wavefunction output            ... PbCl6NH3CH3-2_mp2_sp_4.orca.pout.tmp
Perturbation mode              ... Real perturbation
Solver                         ... POPLE
Max. number of iterations      ... 128
Convergence tolerance          ... 1.000e-08
Integral handling              ... Direct
[...]
      pz      :     0.008365  p :     0.021749
      px      :     0.007798
      py      :     0.005586
 22 H s       :     0.692213  s :     0.692213
      pz      :     0.019719  p :     0.045867
      px      :     0.018566
      py      :     0.007582


                     *******************************
                     * LOEWDIN POPULATION ANALYSIS *
                     *******************************

----------------------
LOEWDIN ATOMIC CHARGES
----------------------
   0 C :   -0.339730
   1 N :    0.030705
   2 H :    0.112208
   3 H :    0.111746
   4 H :    0.112609
   5 H :    0.133585
   6 H :    0.129111
   7 H :    0.130270
   8 Pb:    0.191084
   9 Cl:   -0.496700
  10 Cl:   -0.496354
  11 Cl:   -0.485496
  12 Cl:   -0.514263
  13 Cl:   -0.544541
  14 Cl:   -0.522724
  15 N :    0.037536
  16 C :   -0.337775
  17 H :    0.134480
  18 H :    0.140665
  19 H :    0.112966
  20 H :    0.112747
  21 H :    0.112074
  22 H :    0.135796

-------------------------------
LOEWDIN REDUCED ORBITAL CHARGES
-------------------------------
  0 C s       :     2.849912  s :     2.849912
      pz      :     1.052457  p :     3.107818
      px      :     1.042928
      py      :     1.012434
      dz2     :     0.033052  d :     0.340910
      dxz     :     0.086233
      dyz     :     0.085312
      dx2y2   :     0.048042
      dxy     :     0.088271
      f0      :     0.004831  f :     0.041089
      f+1     :     0.004504
      f-1     :     0.006823
      f+2     :     0.004333
      f-2     :     0.007252
      f+3     :     0.005952
      f-3     :     0.007394
  1 N s       :     3.020833  s :     3.020833
      pz      :     1.264003  p :     3.770348
      px      :     1.260172
      py      :     1.246173
      dz2     :     0.016649  d :     0.166933
      dxz     :     0.042758
      dyz     :     0.041360
      dx2y2   :     0.023637
      dxy     :     0.042529
      f0      :     0.001420  f :     0.011181
      f+1     :     0.001302
      f-1     :     0.001653
      f+2     :     0.001173
      f-2     :     0.002248
      f+3     :     0.001557
      f-3     :     0.001830
  2 H s       :     0.825751  s :     0.825751
      pz      :     0.023182  p :     0.062040
      px      :     0.021821
      py      :     0.017037
  3 H s       :     0.826224  s :     0.826224
      pz      :     0.018722  p :     0.062030
      px      :     0.021793
      py      :     0.021515
  4 H s       :     0.825313  s :     0.825313
      pz      :     0.023433  p :     0.062079
      px      :     0.019856
      py      :     0.018790
  5 H s       :     0.721590  s :     0.721590
      pz      :     0.042605  p :     0.144825
      px      :     0.050388
      py      :     0.051832
  6 H s       :     0.721113  s :     0.721113
      pz      :     0.046407  p :     0.149776
      px      :     0.039671
      py      :     0.063698
  7 H s       :     0.721474  s :     0.721474
      pz      :     0.063675  p :     0.148256
      px      :     0.058642
      py      :     0.025938
  8 Pbs       :     3.917689  s :     3.917689
      pz      :     2.417937  p :     7.248945
      px      :     2.415015
      py      :     2.415993
      dz2     :     2.198373  d :    10.542901
      dxz     :     2.043613
      dyz     :     2.054179
      dx2y2   :     2.202561
      dxy     :     2.044175
      f0      :     0.020499  f :     0.099381
      f+1     :     0.013984
      f-1     :     0.015375
      f+2     :     0.009905
      f-2     :     0.005677
      f+3     :     0.016396
      f-3     :     0.017545
  9 Cls       :     5.851070  s :     5.851070
      pz      :     3.904193  p :    11.588500
      px      :     3.818526
      py      :     3.865780
      dz2     :     0.009427  d :     0.053730
      dxz     :     0.008947
      dyz     :     0.012423
      dx2y2   :     0.013273
      dxy     :     0.009661
      f0      :     0.000461  f :     0.003400
      f+1     :     0.000452
      f-1     :     0.000443
      f+2     :     0.000547
      f-2     :     0.000521
      f+3     :     0.000558
      f-3     :     0.000418
 10 Cls       :     5.851376  s :     5.851376
      pz      :     3.880697  p :    11.588079
      px      :     3.889182
      py      :     3.818200
      dz2     :     0.010096  d :     0.053527
      dxz     :     0.013442
      dyz     :     0.008776
      dx2y2   :     0.012781
      dxy     :     0.008431
      f0      :     0.000405  f :     0.003372
      f+1     :     0.000621
      f-1     :     0.000435
      f+2     :     0.000604
      f-2     :     0.000410
      f+3     :     0.000416
      f-3     :     0.000482
 11 Cls       :     5.847382  s :     5.847382
      pz      :     3.811211  p :    11.580977
      px      :     3.894981
      py      :     3.874785
      dz2     :     0.014360  d :     0.053778
      dxz     :     0.009176
      dyz     :     0.009749
      dx2y2   :     0.008335
      dxy     :     0.012159
      f0      :     0.000628  f :     0.003359
      f+1     :     0.000412
      f-1     :     0.000438
      f+2     :     0.000385
      f-2     :     0.000524
      f+3     :     0.000514
      f-3     :     0.000458
 12 Cls       :     5.857746  s :     5.857746
      pz      :     3.901249  p :    11.601228
      px      :     3.824236
      py      :     3.875743
      dz2     :     0.009326  d :     0.052018
      dxz     :     0.008756
      dyz     :     0.012165
      dx2y2   :     0.012579
      dxy     :     0.009192
      f0      :     0.000432  f :     0.003271
      f+1     :     0.000443
      f-1     :     0.000462
      f+2     :     0.000529
      f-2     :     0.000480
      f+3     :     0.000512
      f-3     :     0.000413
 13 Cls       :     5.869231  s :     5.869231
      pz      :     3.831108  p :    11.622337
      px      :     3.903165
      py      :     3.888064
      dz2     :     0.012325  d :     0.049859
      dxz     :     0.008879
      dyz     :     0.009234
      dx2y2   :     0.008213
      dxy     :     0.011209
      f0      :     0.000536  f :     0.003114
      f+1     :     0.000399
      f-1     :     0.000412
      f+2     :     0.000379
      f-2     :     0.000482
      f+3     :     0.000468
      f-3     :     0.000438
 14 Cls       :     5.860786  s :     5.860786
      pz      :     3.888511  p :    11.607169
      px      :     3.891540
      py      :     3.827118
      dz2     :     0.009663  d :     0.051529
      dxz     :     0.012734
      dyz     :     0.008568
      dx2y2   :     0.012175
      dxy     :     0.008390
      f0      :     0.000401  f :     0.003240
      f+1     :     0.000565
      f-1     :     0.000427
      f+2     :     0.000564
      f-2     :     0.000409
      f+3     :     0.000409
      f-3     :     0.000466
 15 N s       :     3.019786  s :     3.019786
      pz      :     1.263189  p :     3.765440
      px      :     1.258968
      py      :     1.243283
      dz2     :     0.016525  d :     0.166142
      dxz     :     0.042287
      dyz     :     0.041184
      dx2y2   :     0.023787
      dxy     :     0.042359
      f0      :     0.001398  f :     0.011095
      f+1     :     0.001282
      f-1     :     0.001676
      f+2     :     0.001167
      f-2     :     0.002171
      f+3     :     0.001545
      f-3     :     0.001856
 16 C s       :     2.850062  s :     2.850062
      pz      :     1.053203  p :     3.107297
      px      :     1.044224
      py      :     1.009871
      dz2     :     0.032725  d :     0.339400
      dxz     :     0.085719
      dyz     :     0.084668
      dx2y2   :     0.048168
      dxy     :     0.088119
      f0      :     0.004767  f :     0.041016
      f+1     :     0.004389
      f-1     :     0.006919
      f+2     :     0.004305
      f-2     :     0.007206
      f+3     :     0.005923
      f-3     :     0.007506
 17 H s       :     0.721266  s :     0.721266
      pz      :     0.045625  p :     0.144254
      px      :     0.038272
      py      :     0.060357
 18 H s       :     0.721669  s :     0.721669
      pz      :     0.041574  p :     0.137665
      px      :     0.047744
      py      :     0.048347
 19 H s       :     0.824935  s :     0.824935
      pz      :     0.023601  p :     0.062099
      px      :     0.019801
      py      :     0.018698
 20 H s       :     0.825155  s :     0.825155
      pz      :     0.018503  p :     0.062097
      px      :     0.022067
      py      :     0.021527
 21 H s       :     0.825916  s :     0.825916
      pz      :     0.023470  p :     0.062010
      px      :     0.021869
      py      :     0.016672
 22 H s       :     0.720609  s :     0.720609
      pz      :     0.061274  p :     0.143595
      px      :     0.057124
      py      :     0.025197


                      *****************************
                      * MAYER POPULATION ANALYSIS *
                      *****************************

  NA   - Mulliken gross atomic population
  ZA   - Total nuclear charge
  QA   - Mulliken gross atomic charge
  VA   - Mayer's total valence
  BVA  - Mayer's bonded valence
  FA   - Mayer's free valence

  ATOM       NA         ZA         QA         VA         BVA        FA
  0 C      6.2698     6.0000    -0.2698     4.0013     3.8833     0.1180
  1 N      7.2960     7.0000    -0.2960     3.1965     3.0489     0.1476
  2 H      0.8809     1.0000     0.1191     0.9696     0.9497     0.0198
  3 H      0.8819     1.0000     0.1181     0.9687     0.9489     0.0198
  4 H      0.8797     1.0000     0.1203     0.9694     0.9497     0.0198
  5 H      0.7399     1.0000     0.2601     1.0276     1.0055     0.0220
  6 H      0.7348     1.0000     0.2652     1.0266     1.0047     0.0219
  7 H      0.7375     1.0000     0.2625     1.0282     1.0062     0.0220
  8 Pb    20.9688    22.0000     1.0312     1.9847     1.6230     0.3617
  9 Cl    17.6938    17.0000    -0.6938     0.7957     0.5385     0.2573
 10 Cl    17.6930    17.0000    -0.6930     0.7966     0.5393     0.2574
 11 Cl    17.6874    17.0000    -0.6874     0.8057     0.5480     0.2578
 12 Cl    17.7020    17.0000    -0.7020     0.7816     0.5245     0.2571
 13 Cl    17.7133    17.0000    -0.7133     0.7626     0.5059     0.2567
 14 Cl    17.7058    17.0000    -0.7058     0.7758     0.5189     0.2570
 15 N      7.2826     7.0000    -0.2826     3.2099     3.0636     0.1463
 16 C      6.2692     6.0000    -0.2692     3.9984     3.8807     0.1177
 17 H      0.7400     1.0000     0.2600     1.0310     1.0091     0.0220
 18 H      0.7458     1.0000     0.2542     1.0369     1.0146     0.0222
 19 H      0.8789     1.0000     0.1211     0.9692     0.9495     0.0197
 20 H      0.8796     1.0000     0.1204     0.9691     0.9494     0.0197
 21 H      0.8813     1.0000     0.1187     0.9685     0.9487     0.0198
 22 H      0.7381     1.0000     0.2619     1.0305     1.0085     0.0220

  Mayer bond orders larger than 0.1
B(  0-C ,  1-N ) :   0.9395 B(  0-C ,  2-H ) :   0.9608 B(  0-C ,  3-H ) :   0.9604 
B(  0-C ,  4-H ) :   0.9602 B(  1-N ,  5-H ) :   0.7500 B(  1-N ,  6-H ) :   0.7399 
B(  1-N ,  7-H ) :   0.7439 B(  5-H , 11-Cl) :   0.2589 B(  6-H ,  9-Cl) :   0.2696 
B(  7-H , 10-Cl) :   0.2657 B(  8-Pb,  9-Cl) :   0.2730 B(  8-Pb, 10-Cl) :   0.2774 
B(  8-Pb, 11-Cl) :   0.2942 B(  8-Pb, 12-Cl) :   0.2657 B(  8-Pb, 13-Cl) :   0.2537 
B(  8-Pb, 14-Cl) :   0.2599 B( 12-Cl, 17-H ) :   0.2638 B( 13-Cl, 18-H ) :   0.2599 
B( 14-Cl, 22-H ) :   0.2639 B( 15-N , 16-C ) :   0.9405 B( 15-N , 17-H ) :   0.7473 
B( 15-N , 18-H ) :   0.7560 B( 15-N , 22-H ) :   0.7473 B( 16-C , 19-H ) :   0.9597 
B( 16-C , 20-H ) :   0.9599 B( 16-C , 21-H ) :   0.9604 


-------
TIMINGS
-------

Total time                : 1487.788 sec
Integral trafo            :   14.652 sec (  1.0%)
I/O of integrals          :    0.852 sec (  0.1%)
K(i,j) Operators          :   97.801 sec (  6.6%)
T(i,j) pair energies      :   12.237 sec (  0.8%)
V-calculation             :    0.021 sec (  0.0%)
V**(-1/2)                 :    0.092 sec (  0.0%)
Gamma(ia|P)               :   89.460 sec (  6.0%)
Gamma-Trafo               :    6.229 sec (  0.4%)
D(virtual)                :   44.105 sec (  3.0%)
D(internal)               :   85.013 sec (  5.7%)
W(virtual)                :   88.621 sec (  6.0%)
W(internal)               :  261.081 sec ( 17.5%)
L(virtual)                :   39.470 sec (  2.7%)
L(internal)               :    1.630 sec (  0.1%)
G(D)                      :   40.307 sec (  2.7%)
G(Z)                      :   40.678 sec (  2.7%)
Z-Vector Solution         :  328.540 sec ( 22.1%)
Z-Vector Solution         :  328.540 sec ( 22.1%)
3-Index Derivative 
+ Separable RIJ part      :   17.058 sec (  1.1%)
2-Index Derivative 
+ Separable RIJ part      :    0.098 sec (  0.0%)
Separable Gradient (COSX) :  310.532 sec ( 20.9%)


---------------------------------------
MP2 TOTAL ENERGY:    -3146.563319540 Eh
---------------------------------------

The final MP2 gradient
  0:  -0.00029192  -0.00013555  -0.00049969
  1:   0.00392624   0.00283554   0.00026038
  2:   0.00308281  -0.00197692   0.00332669
  3:  -0.00284541   0.00309909   0.00251540
  4:   0.00284188   0.00277313  -0.00295911
  5:  -0.00501717  -0.00452241   0.00368806
  6:   0.00212398  -0.00410271  -0.00355427
  7:  -0.00448124   0.00134891  -0.00384525
  8:   0.00137085   0.00167076   0.00184442
  9:   0.00359433   0.00058590   0.00029477
 10:   0.00018258   0.00383459  -0.00097682
 11:  -0.00005526  -0.00010378   0.00412480
 12:  -0.00426201   0.00046069   0.00082912
 13:   0.00261565   0.00274887  -0.00596229
 14:   0.00146420  -0.00441977   0.00206429
 15:  -0.00559657  -0.00677227  -0.00164654
 16:   0.00035410   0.00063569   0.00090234
 17:  -0.00351557   0.00429213   0.00242481
 18:   0.00381696   0.00383635  -0.00364159
 19:  -0.00294789  -0.00289873   0.00291190
 20:   0.00287704  -0.00325905  -0.00256343
 21:  -0.00324360   0.00188008  -0.00341176
 22:   0.00401410  -0.00172102   0.00379950

-----------------------------------
NORM OF THE MP2 GRADIENT:  0.025428
-----------------------------------

Entering the calculation of the dispersion correction...

Checking the input atom types...

Done


-------------------------------------------------------------------------------
                          DFT DISPERSION CORRECTION                            
                                                                               
                                DFTD3 V2.1  Rev 6                               
                          USING Becke-Johnson damping                          
-------------------------------------------------------------------------------
The B2PLYP functional is recognized
Active option DFTDOPT                   ...         4   

molecular C6(AA) [au] = 13736.391758 


            DFT-D V3
 parameters
 s6 scaling factor         :     0.6400 
 a1 scaling factor         :     0.3065 
 s8 scaling factor         :     0.9147 
 a2 scaling factor         :     5.0570 
 ad hoc parameters k1-k3   :    16.0000     1.3333    -4.0000 

 Edisp/kcal,au: -17.331837902218  -0.027620038852 
 E6   /kcal   :  -8.163631579 
 E8   /kcal   :  -9.168206323 
 % E8         :  52.898061790 

-------------------------   ----------------
Dispersion correction           -0.027620039
-------------------------   ----------------


-------------------------   --------------------
FINAL SINGLE POINT ENERGY     -3146.590939579046
-------------------------   --------------------


                            ***************************************
                            *     ORCA property calculations      *
                            ***************************************


  WARNING: The energy has been calculated at the MP2 level but the densities
           used in the property calculations are still SCF densities
           MP2 response densities have not been calculated 
           use %mp2 Density relaxed end
           or  %mp2 Density unrelaxed end

                                    ---------------------
                                    Active property flags
                                    ---------------------
   (+) Dipole Moment


------------------------------------------------------------------------------
                       ORCA ELECTRIC PROPERTIES CALCULATION
------------------------------------------------------------------------------

Dipole Moment Calculation                       ... on
Quadrupole Moment Calculation                   ... off
Polarizability Calculation                      ... off
GBWName                                         ... PbCl6NH3CH3-2_mp2_sp_4.orca.gbw
Electron density file                           ... PbCl6NH3CH3-2_mp2_sp_4.orca.scfp.tmp

-------------
DIPOLE MOMENT
-------------
                                X             Y             Z
Electronic contribution:      1.88624       1.62220       3.19630
Nuclear contribution   :     -1.88823      -1.50550      -2.97770
                        -----------------------------------------
Total Dipole Moment    :     -0.00200       0.11670       0.21860
                        -----------------------------------------
Magnitude (a.u.)       :      0.24781
Magnitude (Debye)      :      0.62988


                         *** MP2 UNRELAXED DENSITY ***

------------------------------------------------------------------------------
                       ORCA ELECTRIC PROPERTIES CALCULATION
------------------------------------------------------------------------------

Dipole Moment Calculation                       ... on
Quadrupole Moment Calculation                   ... off
Polarizability Calculation                      ... off
GBWName                                         ... PbCl6NH3CH3-2_mp2_sp_4.orca.gbw
Electron density file                           ... PbCl6NH3CH3-2_mp2_sp_4.orca.pmp2ur

-------------
DIPOLE MOMENT
-------------
                                X             Y             Z
Electronic contribution:      1.88655       1.62235       3.19657
Nuclear contribution   :     -1.88823      -1.50550      -2.97770
                        -----------------------------------------
Total Dipole Moment    :     -0.00168       0.11686       0.21887
                        -----------------------------------------
Magnitude (a.u.)       :      0.24812
Magnitude (Debye)      :      0.63067


                           *** MP2 RELAXED DENSITY ***

------------------------------------------------------------------------------
                       ORCA ELECTRIC PROPERTIES CALCULATION
------------------------------------------------------------------------------

Dipole Moment Calculation                       ... on
Quadrupole Moment Calculation                   ... off
Polarizability Calculation                      ... off
GBWName                                         ... PbCl6NH3CH3-2_mp2_sp_4.orca.gbw
Electron density file                           ... PbCl6NH3CH3-2_mp2_sp_4.orca.pmp2re

-------------
DIPOLE MOMENT
-------------
                                X             Y             Z
Electronic contribution:      1.88692       1.62006       3.19292
Nuclear contribution   :     -1.88823      -1.50550      -2.97770
                        -----------------------------------------
Total Dipole Moment    :     -0.00131       0.11457       0.21522
                        -----------------------------------------
Magnitude (a.u.)       :      0.24382
Magnitude (Debye)      :      0.61973


Timings for individual modules:

Sum of individual times         ...     1902.761 sec (=  31.713 min)
GTO integral calculation        ...        1.332 sec (=   0.022 min)   0.1 %
SCF iterations                  ...      413.318 sec (=   6.889 min)  21.7 %
MP2 module                      ...     1488.111 sec (=  24.802 min)  78.2 %
                             ****ORCA TERMINATED NORMALLY****
TOTAL RUN TIME: 0 days 0 hours 31 minutes 44 seconds 870 msec
