
                                 *****************
                                 * O   R   C   A *
                                 *****************

           --- An Ab Initio, DFT and Semiempirical electronic structure package ---

                  #######################################################
                  #                        -***-                        #
                  #  Department of molecular theory and spectroscopy    #
                  #              Directorship: Frank Neese              #
                  # Max Planck Institute for Chemical Energy Conversion #
                  #                  D-45470 Muelheim/Ruhr              #
                  #                       Germany                       #
                  #                                                     #
                  #                  All rights reserved                #
                  #                        -***-                        #
                  #######################################################


                         Program Version 3.0.3 - RELEASE   -


 With contributions from (in alphabetic order):
   Ute Becker             : Parallelization
   Dmytro Bykov           : SCF Hessian
   Dmitry Ganyushin       : Spin-Orbit,Spin-Spin,Magnetic field MRCI
   Andreas Hansen         : Spin unrestricted coupled pair/coupled cluster methods
   Dimitrios Liakos       : Extrapolation schemes; parallel MDCI
   Robert Izsak           : Overlap fitted RIJCOSX, COSX-SCS-MP3
   Christian Kollmar      : KDIIS, OOCD, Brueckner-CCSD(T), CCSD density
   Simone Kossmann        : Meta GGA functionals, TD-DFT gradient, OOMP2, MP2 Hessian
   Taras Petrenko         : DFT Hessian,TD-DFT gradient, ASA and ECA modules, normal mode analysis, Resonance Raman, ABS, FL, XAS/XES, NRVS
   Christoph Reimann      : Effective Core Potentials
   Michael Roemelt        : Restricted open shell CIS
   Christoph Riplinger    : Improved optimizer, TS searches, QM/MM, DLPNO-CCSD
   Barbara Sandhoefer     : DKH picture change effects
   Igor Schapiro          : Molecular dynamics
   Kantharuban Sivalingam : CASSCF convergence, NEVPT2
   Boris Wezisla          : Elementary symmetry handling
   Frank Wennmohs         : Technical directorship


 We gratefully acknowledge several colleagues who have allowed us to
 interface, adapt or use parts of their codes:
   Stefan Grimme, W. Hujo, H. Kruse, T. Risthaus : VdW corrections, initial TS optimization,
                                                   DFT functionals, gCP
   Ed Valeev                                     : LibInt (2-el integral package), F12 methods
   Garnet Chan, S. Sharma, R. Olivares           : DMRG
   Ulf Ekstrom                                   : XCFun DFT Library
   Mihaly Kallay                                 : mrcc  (arbitrary order and MRCC methods)
   Andreas Klamt, Michael Diedenhofen            : otool_cosmo (COSMO solvation model)
   Frank Weinhold                                : gennbo (NPA and NBO analysis)
   Christopher J. Cramer and Donald G. Truhlar   : smd solvation model


 Your calculation uses the libint2 library for the computation of 2-el integrals
 For citations please refer to: http://libint.valeyev.net

 This ORCA versions uses:
   CBLAS   interface :  Fast vector & matrix operations
   LAPACKE interface :  Fast linear algebra routines
   SCALAPACK package :  Parallel linear algebra routines


Your calculation utilizes the basis: Ahlrichs-TZV
Cite in your paper:
H - Kr: A. Schaefer, H. Horn and R. Ahlrichs, J. Chem. Phys. 97, 2571 (1992).

The def2-TZV basis will be loaded
Cite in your paper:
 	F. Weigend, R. Ahlrichs, Phys. Chem. Chem. Phys. 2005, 7, 3297.

Your calculation utilizes the atom-pairwise dispersion correction
with the Becke-Johnson damping scheme (D3BJ)
Cite in your paper:
S.Grimme, S.Ehrlich, L.Goerigk, J Comput Chem, (2011), 32, 1456–1465 
S.Grimme, J.Antony, S.Ehrlich and H.Krieg, J.Chem.Phys., 132, (2010), 154104 
   

================================================================================
                                        WARNINGS
                       Please study these warnings very carefully!
================================================================================

WARNING: The RI method has been chosen with no auxiliary basis (AUX or GTOAUX in BASIS block)
        Standard TZV/J expansion basis used (GTOAUX=TZV_J)

Now building the actual basis set
cite the ECPs for Pb [SD(60,MDF)] as follows:
  B. Metz, H. Stoll, M. Dolg, J. Chem. Phys. 113, 2563 (2000).

ECP parameters for Pb [SD(60,MDF)] have been obtained from:
  pseudopotential library of the Stuttgart/Cologne group
  http://www.theochem.uni-stuttgart.de/pseudopotentials/

cite the ECP basis sets for Pb [DEF2-TZVP] as follows:
  F. Weigend, R. Ahlrichs; Phys. Chem. Chem. Phys. 7, 3297(2005).

ECP basis sets for Pb [DEF2-TZVP] have been obtained from:
  Turbomole basis set library
  ftp://ftp.chemie.uni-karlsruhe.de/pub/basen/



INFO   : the flag for use of LIBINT has been found!

================================================================================
                                       INPUT FILE
================================================================================
NAME = PbCl6NH3CH3-2_mp2_sp_3.orca
|  1> ! RIJCOSX RI-B2PLYP D3BJ def2-TZVP ECP{def2-TZVP} TIGHTSCF Grid5 FinalGrid6 MORead
|  2> %method
|  3>  RunTyp Gradient
|  4>  end
|  5> %maxcore 1000
|  6> %moinp "previous.gbw"
|  7> *xyz -2 1
|  8> C 2.821971 3.493173 2.716929 
|  9> N 2.031893 2.485380 2.005967 
| 10> H 3.493737 3.003675 3.431461 
| 11> H 2.156449 4.174155 3.259759 
| 12> H 3.419280 4.070497 2.001994 
| 13> H 1.424368 1.881241 2.639320 
| 14> H 2.617127 1.787701 1.451958 
| 15> H 1.353302 2.890520 1.291746 
| 16> Pb 0.087665 -0.058263 0.249896 
| 17> Cl 3.180665 0.284284 0.292479 
| 18> Cl -0.009206 3.015091 -0.165681 
| 19> Cl 0.110725 0.513897 3.287868 
| 20> Cl -2.987454 -0.308247 0.121877 
| 21> Cl -0.009057 -0.525869 -2.843661 
| 22> Cl 0.218108 -3.118611 0.573039 
| 23> N -1.884966 -2.527607 -1.578982 
| 24> C -2.664881 -3.549172 -2.281400 
| 25> H -2.474954 -1.829497 -1.031708 
| 26> H -1.279571 -1.925402 -2.215561 
| 27> H -3.259633 -4.123288 -1.561779 
| 28> H -1.991792 -4.230944 -2.813775 
| 29> H -3.338231 -3.073756 -3.003955 
| 30> H -1.204879 -2.923566 -0.859634 
| 31> *
| 32> 
| 33>                          ****END OF INPUT****
================================================================================

                     *******************************
                     * Energy+Gradient Calculation *
                     *******************************

---------------------------------
CARTESIAN COORDINATES (ANGSTROEM)
---------------------------------
  C      2.821971    3.493173    2.716929
  N      2.031893    2.485380    2.005967
  H      3.493737    3.003675    3.431461
  H      2.156449    4.174155    3.259759
  H      3.419280    4.070497    2.001994
  H      1.424368    1.881241    2.639320
  H      2.617127    1.787701    1.451958
  H      1.353302    2.890520    1.291746
  Pb     0.087665   -0.058263    0.249896
  Cl     3.180665    0.284284    0.292479
  Cl    -0.009206    3.015091   -0.165681
  Cl     0.110725    0.513897    3.287868
  Cl    -2.987454   -0.308247    0.121877
  Cl    -0.009057   -0.525869   -2.843661
  Cl     0.218108   -3.118611    0.573039
  N     -1.884966   -2.527607   -1.578982
  C     -2.664881   -3.549172   -2.281400
  H     -2.474954   -1.829497   -1.031708
  H     -1.279571   -1.925402   -2.215561
  H     -3.259633   -4.123288   -1.561779
  H     -1.991792   -4.230944   -2.813775
  H     -3.338231   -3.073756   -3.003955
  H     -1.204879   -2.923566   -0.859634

----------------------------
CARTESIAN COORDINATES (A.U.)
----------------------------
  NO LB      ZA    FRAG    MASS        X           Y           Z
   0 C     6.0000    0    12.011          5.332752347867888          6.601140308408101          5.134251735308532
   1 N     7.0000    0    14.007          3.839721303431654          4.696687538725200          3.790728263683611
   2 H     1.0000    0     1.008          6.602206113947632          5.676123145305915          6.484521529231552
   3 H     1.0000    0     1.008          4.075098031768349          7.888009790538062          6.160051772585005
   4 H     1.0000    0     1.008          6.461502775194258          7.692124558948052          3.783220381753542
   5 H     1.0000    0     1.008          2.691665433921146          3.555030281904149          4.987591979781038
   6 H     1.0000    0     1.008          4.945653287690924          3.378265299337155          2.743802977956033
   7 H     1.0000    0     1.008          2.557370156487898          5.462291184622056          2.441046174588241
   8 Pb   22.0000*   0   207.200  0.165662841530207  -0.110101113740654  0.472235001962385
   9 Cl   17.0000    0    35.453          6.010585773748637          0.537218904255669          0.552705209923154
  10 Cl   17.0000    0    35.453         -0.017396818788879          5.697696258850761         -0.313091715594207
  11 Cl   17.0000    0    35.453          0.209239926178431          0.971124591043730          6.213170084483398
  12 Cl   17.0000    0    35.453         -5.645469897687579         -0.582502411602824          0.230314152023920
  13 Cl   17.0000    0    35.453         -0.017115249594925         -0.993748392319035         -5.373740507712641
  14 Cl   17.0000    0    35.453          0.412164387617296         -5.893320708234288          1.082886774056100
  15 N     7.0000    0    14.007         -3.562069511753006         -4.776485004182294         -2.983843550391246
  16 C     6.0000    0    12.011         -5.035895269490199         -6.706963082181557         -4.311221201927943
  17 H     1.0000    0     1.008         -4.676985254052937         -3.457248292830528         -1.949645570175627
  18 H     1.0000    0     1.008         -2.418038758907750         -3.638482477704246         -4.186803522996702
  19 H     1.0000    0     1.008         -6.159813667092132         -7.791885091283890         -2.951334591709398
  20 H     1.0000    0     1.008         -3.763941395735278         -7.995325447957316         -5.317264152474270
  21 H     1.0000    0     1.008         -6.308342361766074         -5.808557042497251         -5.676652268623413
  22 H     1.0000    0     1.008         -2.276891334512904         -5.524739074443619         -1.624472835407261
* core charge reduced due to ECP

--------------------------------
INTERNAL COORDINATES (ANGSTROEM)
--------------------------------
 C      0   0   0   0.000000     0.000     0.000
 N      1   0   0   1.464697     0.000     0.000
 H      1   2   0   1.096099   109.861     0.000
 H      1   2   3   1.096048   109.899   239.985
 H      1   2   3   1.095999   109.864   119.972
 H      2   1   3   1.065461   114.153    59.908
 H      2   1   3   1.065918   113.984   299.878
 H      2   1   3   1.065240   114.041   179.989
 Pb     7   2   1   3.354208    97.611   179.433
 Cl     7   2   1   1.980462   163.215   180.300
 Cl     8   2   1   1.999010   161.213   175.006
 Cl     6   2   1   2.003972   162.372   177.321
 Cl     9   7   2   3.087918   144.135     3.612
 Cl     9   7   2   3.130193   117.367   127.314
 Cl     9   7   2   3.080124   118.508   230.345
 N     13   9   7   3.005655    73.618   176.646
 C     16  13   9   1.464668   126.233   177.876
 H     16  13   9   1.065341    12.122   178.483
 H     16  13   9   1.065076    97.424   305.363
 H     17  16  13   1.095990   109.842   300.444
 H     17  16  13   1.096031   109.864   180.493
 H     17  16  13   1.096132   109.921    60.454
 H     16  13   9   1.066191    97.261    51.112

---------------------------
INTERNAL COORDINATES (A.U.)
---------------------------
 C      0   0   0   0.000000     0.000     0.000
 N      1   0   0   2.767876     0.000     0.000
 H      1   2   0   2.071328   109.861     0.000
 H      1   2   3   2.071230   109.899   239.985
 H      1   2   3   2.071137   109.864   119.972
 H      2   1   3   2.013429   114.153    59.908
 H      2   1   3   2.014293   113.984   299.878
 H      2   1   3   2.013011   114.041   179.989
 Pb     7   2   1   6.338535    97.611   179.433
 Cl     7   2   1   3.742531   163.215   180.300
 Cl     8   2   1   3.777581   161.213   175.006
 Cl     6   2   1   3.786957   162.372   177.321
 Cl     9   7   2   5.835319   144.135     3.612
 Cl     9   7   2   5.915207   117.367   127.314
 Cl     9   7   2   5.820592   118.508   230.345
 N     13   9   7   5.679864    73.618   176.646
 C     16  13   9   2.767822   126.233   177.876
 H     16  13   9   2.013203    12.122   178.483
 H     16  13   9   2.012702    97.424   305.363
 H     17  16  13   2.071120   109.842   300.444
 H     17  16  13   2.071199   109.864   180.493
 H     17  16  13   2.071390   109.921    60.454
 H     16  13   9   2.014809    97.261    51.112

---------------------
BASIS SET INFORMATION
---------------------
There are 5 groups of distinct atoms

 Group   1 Type C   : 11s6p2d1f contracted to 5s3p2d1f pattern {62111/411/11/1}
 Group   2 Type N   : 11s6p2d1f contracted to 5s3p2d1f pattern {62111/411/11/1}
 Group   3 Type H   : 5s1p contracted to 3s1p pattern {311/1}
 Group   4 Type Pb  : 10s9p8d2f contracted to 6s5p3d2f pattern {421111/33111/611/11}
 Group   5 Type Cl  : 14s9p3d1f contracted to 5s5p2d1f pattern {73211/51111/21/1}

Atom   0C    basis set group =>   1
Atom   1N    basis set group =>   2
Atom   2H    basis set group =>   3
Atom   3H    basis set group =>   3
Atom   4H    basis set group =>   3
Atom   5H    basis set group =>   3
Atom   6H    basis set group =>   3
Atom   7H    basis set group =>   3
Atom   8Pb   basis set group =>   4
Atom   9Cl   basis set group =>   5
Atom  10Cl   basis set group =>   5
Atom  11Cl   basis set group =>   5
Atom  12Cl   basis set group =>   5
Atom  13Cl   basis set group =>   5
Atom  14Cl   basis set group =>   5
Atom  15N    basis set group =>   2
Atom  16C    basis set group =>   1
Atom  17H    basis set group =>   3
Atom  18H    basis set group =>   3
Atom  19H    basis set group =>   3
Atom  20H    basis set group =>   3
Atom  21H    basis set group =>   3
Atom  22H    basis set group =>   3
-------------------------------
AUXILIARY BASIS SET INFORMATION
-------------------------------
There are 5 groups of distinct atoms

 Group   1 Type C   : 12s5p4d2f1g contracted to 6s4p3d1f1g pattern {711111/2111/211/2/1}
 Group   2 Type N   : 12s5p4d2f1g contracted to 6s4p3d1f1g pattern {711111/2111/211/2/1}
 Group   3 Type H   : 5s2p1d contracted to 3s1p1d pattern {311/2/1}
 Group   4 Type Pb  : 31s12p8d6f3g contracted to 31s12p8d6f3g pattern {1111111111111111111111111111111/111111111111/11111111/111111/111}
 Group   5 Type Cl  : 14s5p5d2f1g contracted to 8s4p3d1f1g pattern {71111111/2111/311/2/1}

Atom   0C    basis set group =>   1
Atom   1N    basis set group =>   2
Atom   2H    basis set group =>   3
Atom   3H    basis set group =>   3
Atom   4H    basis set group =>   3
Atom   5H    basis set group =>   3
Atom   6H    basis set group =>   3
Atom   7H    basis set group =>   3
Atom   8Pb   basis set group =>   4
Atom   9Cl   basis set group =>   5
Atom  10Cl   basis set group =>   5
Atom  11Cl   basis set group =>   5
Atom  12Cl   basis set group =>   5
Atom  13Cl   basis set group =>   5
Atom  14Cl   basis set group =>   5
Atom  15N    basis set group =>   2
Atom  16C    basis set group =>   1
Atom  17H    basis set group =>   3
Atom  18H    basis set group =>   3
Atom  19H    basis set group =>   3
Atom  20H    basis set group =>   3
Atom  21H    basis set group =>   3
Atom  22H    basis set group =>   3

-------------------------
ECP PARAMETER INFORMATION
-------------------------

 Group 1, Type Pb ECP SD(60,MDF) (replacing 60 core electrons, lmax=5)

Atom   8Pb   ECP group =>   1


------------------------------------------------------------------------------
                           ORCA GTO INTEGRAL CALCULATION
                           -- RI-GTO INTEGRALS CHOSEN --
------------------------------------------------------------------------------

                         BASIS SET STATISTICS AND STARTUP INFO

Gaussian basis set:
 # of primitive gaussian shells          ...  343
 # of primitive gaussian functions       ...  749
 # of contracted shells                  ...  186
 # of contracted basis functions         ...  468
 Highest angular momentum                ...    3
 Maximum contraction depth               ...    7
Auxiliary gaussian basis set:
 # of primitive gaussian shells          ...  414
 # of primitive gaussian functions       ... 1110
 # of contracted shells                  ...  282
 # of contracted aux-basis functions     ...  810
 Highest angular momentum                ...    4
 Maximum contraction depth               ...    7
Ratio of auxiliary to basis functions    ...  1.73
Integral package used                  ... LIBINT
 One Electron integrals                  
   ECP integrals                         ... done
 Ordering auxiliary basis shells         ... done
 Integral threshhold             Thresh  ...  2.500e-11
 Primitive cut-off               TCut    ...  2.500e-12
 Pre-screening matrix                    ... done
 Shell pair data                         ... 
 Ordering of the shell pairs             ... done (   0.002 sec) 11338 of 17391 pairs
 Determination of significant pairs      ... done (   0.000 sec)
 Creation of shell pair data             ... done (   0.004 sec)
 Storage of shell pair data              ... done (   0.003 sec)
 Shell pair data done in (   0.009 sec)
 Computing two index integrals           ... done
 Cholesky decomposition of the V-matrix  ... done


Timings:
 Total evaluation time                   ...   1.316 sec (  0.022 min)
 One electron matrix time                ...   0.743 sec (  0.012 min) = 56.5%
 Schwartz matrix evaluation time         ...   0.483 sec (  0.008 min) = 36.7%
 Two index repulsion integral time       ...   0.028 sec (  0.000 min) =  2.1%
 Cholesky decomposition of V             ...   0.027 sec (  0.000 min) =  2.0%
 Three index repulsion integral time     ...   0.000 sec (  0.000 min) =  0.0%

-------------------------------------------------------------------------------
                                 ORCA SCF
-------------------------------------------------------------------------------

------------
SCF SETTINGS
------------
Hamiltonian:
 Density Functional     Method          .... DFT(GTOs)
 Exchange Functional    Exchange        .... B88
   X-Alpha parameter    XAlpha          ....  0.666667
   Becke's b parameter  XBeta           ....  0.004200
 Correlation Functional Correlation     .... LYP
 LDA part of GGA corr.  LDAOpt          .... VWN-3
 Gradients option       PostSCFGGA      .... off
 Hybrid DFT is turned on
   Fraction HF Exchange ScalHFX         ....  0.530000
   Scaling of DF-GGA-X  ScalDFX         ....  0.470000
   Scaling of DF-GGA-C  ScalDFC         ....  0.730000
   Scaling of DF-LDA-C  ScalLDAC        ....  0.730000
   Perturbative correction              ....  0.270000
 RI-approximation to the Coulomb term is turned on
   Number of auxiliary basis functions  .... 810
   RIJ-COSX (HFX calculated with COS-X)).... on


General Settings:
 Integral files         IntName         .... PbCl6NH3CH3-2_mp2_sp_3.orca
 Hartree-Fock type      HFTyp           .... RHF
 Total Charge           Charge          ....   -2
 Multiplicity           Mult            ....    1
 Number of Electrons    NEL             ....  164
 Basis Dimension        Dim             ....  468
 Nuclear Repulsion      ENuc            ....   1554.2887888210 Eh

Convergence Acceleration:
 DIIS                   CNVDIIS         .... on
   Start iteration      DIISMaxIt       ....    12
   Startup error        DIISStart       ....  0.200000
   # of expansion vecs  DIISMaxEq       ....     5
   Bias factor          DIISBfac        ....   1.050
   Max. coefficient     DIISMaxC        ....  10.000
 Newton-Raphson         CNVNR           .... off
 SOSCF                  CNVSOSCF        .... on
   Start iteration      SOSCFMaxIt      ....   150
   Startup grad/error   SOSCFStart      ....  0.003300
 Level Shifting         CNVShift        .... on
   Level shift para.    LevelShift      ....    0.2500
   Turn off err/grad.   ShiftErr        ....    0.0010
 Zerner damping         CNVZerner       .... off
 Static damping         CNVDamp         .... on
   Fraction old density DampFac         ....    0.7000
   Max. Damping (<1)    DampMax         ....    0.9800
   Min. Damping (>=0)   DampMin         ....    0.0000
   Turn off err/grad.   DampErr         ....    0.1000
 Fernandez-Rico         CNVRico         .... off

SCF Procedure:
 Maximum # iterations   MaxIter         ....   125
 SCF integral mode      SCFMode         .... Direct
   Integral package                     .... LIBINT
 Reset frequeny         DirectResetFreq ....    20
 Integral Threshold     Thresh          ....  2.500e-11 Eh
 Primitive CutOff       TCut            ....  2.500e-12 Eh

Convergence Tolerance:
 Convergence Check Mode ConvCheckMode   .... Total+1el-Energy
 Energy Change          TolE            ....  1.000e-08 Eh
 1-El. energy change                    ....  1.000e-05 Eh
 Orbital Gradient       TolG            ....  1.000e-05
 Orbital Rotation angle TolX            ....  1.000e-05
 DIIS Error             TolErr          ....  5.000e-07


Diagonalization of the overlap matrix:
Smallest eigenvalue                        ... 1.085e-03
Time for diagonalization                   ...    0.078 sec
Threshold for overlap eigenvalues          ... 1.000e-08
Number of eigenvalues below threshold      ... 0
Time for construction of square roots      ...    0.032 sec
Total time needed                          ...    0.111 sec

---------------------
INITIAL GUESS: MOREAD
---------------------
Guess MOs are being read from file: previous.gbw
Input geometry compatible with but different from current geometry
Input basis set matches current basis set (good)
MOs were renormalized
MOs were reorthogonalized (Schmidt)
                      ------------------
                      INITIAL GUESS DONE (   0.8 sec)
                      ------------------
-------------------
DFT GRID GENERATION
-------------------

General Integration Accuracy     IntAcc      ...  5.010
Radial Grid Type                 RadialGrid  ... Gauss-Chebyshev
Angular Grid (max. acc.)         AngularGrid ... Lebedev-434
Angular grid pruning method      GridPruning ... 3 (G Style)
Weight generation scheme         WeightScheme... Becke
Basis function cutoff            BFCut       ...    1.0000e-11
Integration weight cutoff        WCut        ...    1.0000e-14
Grids for H and He will be reduced by one unit

# of grid points (after initial pruning)     ... 212974 (   0.1 sec)
# of grid points (after weights+screening)   ... 196015 (   1.1 sec)
nearest neighbour list constructed           ...    0.0 sec
Grid point re-assignment to atoms done       ...    0.1 sec
Grid point division into batches done        ...    1.6 sec
Reduced shell lists constructed in    9.1 sec

Total number of grid points                  ...   196015
Total number of batches                      ...     3073
Average number of points per batch           ...       63
Average number of grid points per atom       ...     8522
Average number of shells per batch           ...    68.11 (36.62%)
Average number of basis functions per batch  ...   172.44 (36.85%)
Average number of large shells per batch     ...    46.08 (67.66%)
Average number of large basis fcns per batch ...   115.43 (66.94%)
Maximum spatial batch extension              ...  30.87, 27.41, 30.33 au
Average spatial batch extension              ...   2.11,  2.08,  2.09 au

Time for grid setup =   10.322 sec

--------------------
COSX GRID GENERATION
--------------------

General Integration Accuracy     IntAcc      ...  3.340
Radial Grid Type                 RadialGrid  ... Gauss-Chebyshev
Angular Grid (max. acc.)         AngularGrid ... Lebedev-50
Angular grid pruning method      GridPruning ... 3 (G Style)
Weight generation scheme         WeightScheme... Becke
Basis function cutoff            BFCut       ...    1.0000e-11
Integration weight cutoff        WCut        ...    1.0000e-14
Grids for H and He will be reduced by one unit

# of grid points (after initial pruning)     ...  11762 (   0.0 sec)
# of grid points (after weights+screening)   ...  10917 (   0.1 sec)
nearest neighbour list constructed           ...    0.0 sec
Grid point re-assignment to atoms done       ...    0.0 sec
Grid point division into batches done        ...    0.0 sec
Reduced shell lists constructed in    0.5 sec

Total number of grid points                  ...    10917
Total number of batches                      ...      184
Average number of points per batch           ...       59
Average number of grid points per atom       ...      475
Average number of shells per batch           ...    86.84 (46.69%)
Average number of basis functions per batch  ...   224.81 (48.04%)
Average number of large shells per batch     ...    59.30 (68.28%)
Average number of large basis fcns per batch ...   150.93 (67.14%)
Maximum spatial batch extension              ...  26.56, 19.13, 23.05 au
Average spatial batch extension              ...   5.47,  4.98,  5.34 au

Overlap Fitting                  UseSFitting ... on
Constructing numerical overlap ... done (      0.3 sec)
Inverting numerical overlap    ... done (      0.0 sec)
Obtaining analytic overlap     ... done (      0.0 sec)
Final contraction and storage  ... done (      0.0 sec)


General Integration Accuracy     IntAcc      ...  3.670
Radial Grid Type                 RadialGrid  ... Gauss-Chebyshev
Angular Grid (max. acc.)         AngularGrid ... Lebedev-50
Angular grid pruning method      GridPruning ... 3 (G Style)
Weight generation scheme         WeightScheme... Becke
Basis function cutoff            BFCut       ...    1.0000e-11
Integration weight cutoff        WCut        ...    1.0000e-14
Grids for H and He will be reduced by one unit

# of grid points (after initial pruning)     ...  14690 (   0.0 sec)
# of grid points (after weights+screening)   ...  13610 (   0.1 sec)
nearest neighbour list constructed           ...    0.0 sec
Grid point re-assignment to atoms done       ...    0.0 sec
Grid point division into batches done        ...    0.0 sec
Reduced shell lists constructed in    0.6 sec

Total number of grid points                  ...    13610
Total number of batches                      ...      222
Average number of points per batch           ...       61
Average number of grid points per atom       ...      592
Average number of shells per batch           ...    84.48 (45.42%)
Average number of basis functions per batch  ...   218.29 (46.64%)
Average number of large shells per batch     ...    57.73 (68.34%)
Average number of large basis fcns per batch ...   145.93 (66.85%)
Maximum spatial batch extension              ...  26.87, 19.82, 23.77 au
Average spatial batch extension              ...   5.11,  4.67,  5.06 au

Overlap Fitting                  UseSFitting ... on
Constructing numerical overlap ... done (      0.3 sec)
Inverting numerical overlap    ... done (      0.0 sec)
Obtaining analytic overlap     ... done (      0.0 sec)
Final contraction and storage  ... done (      0.0 sec)


General Integration Accuracy     IntAcc      ...  4.010
Radial Grid Type                 RadialGrid  ... Gauss-Chebyshev
Angular Grid (max. acc.)         AngularGrid ... Lebedev-110
Angular grid pruning method      GridPruning ... 3 (G Style)
Weight generation scheme         WeightScheme... Becke
Basis function cutoff            BFCut       ...    1.0000e-11
Integration weight cutoff        WCut        ...    1.0000e-14
Grids for H and He will be reduced by one unit

# of grid points (after initial pruning)     ...  27082 (   0.0 sec)
# of grid points (after weights+screening)   ...  25304 (   0.1 sec)
nearest neighbour list constructed           ...    0.0 sec
Grid point re-assignment to atoms done       ...    0.0 sec
Grid point division into batches done        ...    0.0 sec
Reduced shell lists constructed in    1.0 sec

Total number of grid points                  ...    25304
Total number of batches                      ...      405
Average number of points per batch           ...       62
Average number of grid points per atom       ...     1100
Average number of shells per batch           ...    80.42 (43.24%)
Average number of basis functions per batch  ...   207.00 (44.23%)
Average number of large shells per batch     ...    54.73 (68.06%)
Average number of large basis fcns per batch ...   138.87 (67.09%)
Maximum spatial batch extension              ...  28.53, 26.37, 26.46 au
Average spatial batch extension              ...   4.33,  4.14,  4.12 au

Overlap Fitting                  UseSFitting ... on
Constructing numerical overlap ... done (      0.5 sec)
Inverting numerical overlap    ... done (      0.0 sec)
Obtaining analytic overlap     ... done (      0.0 sec)
Final contraction and storage  ... done (      0.0 sec)

Time for X-Grid setup             =    3.671 sec
--------------
SCF ITERATIONS
--------------
ITER       Energy         Delta-E        Max-DP      RMS-DP      [F,P]     Damp
               ***  Starting incremental Fock matrix formation  ***
  0  -3145.5422528594   0.000000000000 0.00222329  0.00002418  0.0248999 0.7000
                      *** Initiating the SOSCF procedure ***
                      *** Re-Reading the Fockian *** 
                      *** Removing any level shift *** 
ITER      Energy       Delta-E        Grad      Rot      Max-DP    RMS-DP
  1  -3145.54234729  -0.0000944266  0.000498  0.000498  0.006823  0.000078
               *** Restarting incremental Fock matrix formation ***
  2  -3145.54258349  -0.0002362088  0.000780  0.001416  0.001784  0.000030
  3  -3145.54260513  -0.0000216375  0.000688  0.000916  0.001125  0.000015
  4  -3145.54261621  -0.0000110822  0.000066  0.000137  0.000257  0.000002
  5  -3145.54261636  -0.0000001458  0.000027  0.000018  0.000092  0.000001
  6  -3145.54261649  -0.0000001331  0.000003  0.000009  0.000024  0.000000
                  ***Gradient check signals convergence***
              ***Rediagonalizing the Fockian in SOSCF/NRSCF***

               *****************************************************
               *                     SUCCESS                       *
               *           SCF CONVERGED AFTER   7 CYCLES          *
               *****************************************************

Old exchange energy                            =   -110.583515309 Eh
New exchange energy                            =   -110.591452079 Eh
Exchange energy change after final integration =     -0.007936771 Eh
Total energy after final integration           =  -3145.550553235 Eh
Final COS-X integration done in                =    65.938 sec

----------------
TOTAL SCF ENERGY
----------------

Total Energy       :        -3145.55055323 Eh          -85594.78211 eV

Components:
Nuclear Repulsion  :         1554.28878882 Eh           42294.34815 eV
Electronic Energy  :        -4699.83934206 Eh         -127889.13026 eV

One Electron Energy:        -7557.15196503 Eh         -205640.55953 eV
Two Electron Energy:         2857.31262298 Eh           77751.42928 eV

Virial components:
Potential Energy   :        -6157.89761547 Eh         -167564.91295 eV
Kinetic Energy     :         3012.34706224 Eh           81970.13084 eV
Virial Ratio       :            2.04421917


DFT components:
N(Alpha)           :       81.999985022961 electrons
N(Beta)            :       81.999985022961 electrons
N(Total)           :      163.999970045922 electrons
E(X)               :      -98.136905844150 Eh       
E(C)               :       -4.634592965630 Eh       
E(XC)              :     -102.771498809780 Eh       

---------------
SCF CONVERGENCE
---------------

  Last Energy change         ...    2.9058e-08  Tolerance :   1.0000e-08
  Last MAX-Density change    ...    4.0301e-14  Tolerance :   1.0000e-07
  Last RMS-Density change    ...    5.0691e-16  Tolerance :   5.0000e-09
  Last Orbital Gradient      ...    2.0204e-06  Tolerance :   1.0000e-05
  Last Orbital Rotation      ...    3.9962e-06  Tolerance :   1.0000e-05

             **** THE GBW FILE WAS UPDATED (PbCl6NH3CH3-2_mp2_sp_3.orca.gbw) ****
             **** DENSITY FILE WAS UPDATED (PbCl6NH3CH3-2_mp2_sp_3.orca.scfp.tmp) ****
             **** ENERGY FILE WAS UPDATED (PbCl6NH3CH3-2_mp2_sp_3.orca.en.tmp) ****
----------------
ORBITAL ENERGIES
----------------

  NO   OCC          E(Eh)            E(eV) 
   0   2.0000    -102.583643     -2791.4429 
   1   2.0000    -102.583599     -2791.4416 
   2   2.0000    -102.583391     -2791.4360 
   3   2.0000    -102.581840     -2791.3938 
   4   2.0000    -102.580110     -2791.3467 
   5   2.0000    -102.579576     -2791.3322 
   6   2.0000     -14.693115      -399.8200 
   7   2.0000     -14.691888      -399.7866 
   8   2.0000     -10.491670      -285.4929 
   9   2.0000     -10.490928      -285.4727 
  10   2.0000      -9.590179      -260.9620 
  11   2.0000      -9.590059      -260.9588 
  12   2.0000      -9.590044      -260.9584 
  13   2.0000      -9.588437      -260.9146 
  14   2.0000      -9.586642      -260.8658 
  15   2.0000      -9.586098      -260.8510 
  16   2.0000      -7.226600      -196.6458 
  17   2.0000      -7.226484      -196.6426 
  18   2.0000      -7.226450      -196.6417 
  19   2.0000      -7.226361      -196.6393 
  20   2.0000      -7.226244      -196.6361 
  21   2.0000      -7.226233      -196.6358 
  22   2.0000      -7.225671      -196.6205 
  23   2.0000      -7.225559      -196.6175 
  24   2.0000      -7.225512      -196.6162 
  25   2.0000      -7.224824      -196.5974 
  26   2.0000      -7.224648      -196.5927 
  27   2.0000      -7.223923      -196.5729 
  28   2.0000      -7.223062      -196.5495 
  29   2.0000      -7.222832      -196.5433 
  30   2.0000      -7.222495      -196.5341 
  31   2.0000      -7.222310      -196.5291 
  32   2.0000      -7.222131      -196.5242 
  33   2.0000      -7.221594      -196.5096 
  34   2.0000      -5.566774      -151.4796 
  35   2.0000      -3.337334       -90.8135 
  36   2.0000      -3.336710       -90.7965 
  37   2.0000      -3.336591       -90.7932 
  38   2.0000      -0.881026       -23.9739 
  39   2.0000      -0.880061       -23.9477 
  40   2.0000      -0.725345       -19.7376 
  41   2.0000      -0.725244       -19.7349 
  42   2.0000      -0.724391       -19.7117 
  43   2.0000      -0.722984       -19.6734 
  44   2.0000      -0.722933       -19.6720 
  45   2.0000      -0.634455       -17.2644 
  46   2.0000      -0.633667       -17.2430 
  47   2.0000      -0.601841       -16.3769 
  48   2.0000      -0.601095       -16.3566 
  49   2.0000      -0.599034       -16.3005 
  50   2.0000      -0.598012       -16.2727 
  51   2.0000      -0.596008       -16.2182 
  52   2.0000      -0.593383       -16.1468 
  53   2.0000      -0.411701       -11.2029 
  54   2.0000      -0.411568       -11.1993 
  55   2.0000      -0.410836       -11.1794 
  56   2.0000      -0.410654       -11.1745 
  57   2.0000      -0.363920        -9.9028 
  58   2.0000      -0.363023        -9.8784 
  59   2.0000      -0.293184        -7.9779 
  60   2.0000      -0.291357        -7.9282 
  61   2.0000      -0.291025        -7.9192 
  62   2.0000      -0.290609        -7.9079 
  63   2.0000      -0.290372        -7.9014 
  64   2.0000      -0.114572        -3.1177 
  65   2.0000      -0.109401        -2.9770 
  66   2.0000      -0.108716        -2.9583 
  67   2.0000      -0.097926        -2.6647 
  68   2.0000      -0.090067        -2.4508 
  69   2.0000      -0.086977        -2.3668 
  70   2.0000      -0.086636        -2.3575 
  71   2.0000      -0.083189        -2.2637 
  72   2.0000      -0.082862        -2.2548 
  73   2.0000      -0.082441        -2.2433 
  74   2.0000      -0.081710        -2.2235 
  75   2.0000      -0.079575        -2.1653 
  76   2.0000      -0.079210        -2.1554 
  77   2.0000      -0.078768        -2.1434 
  78   2.0000      -0.078031        -2.1233 
  79   2.0000      -0.075421        -2.0523 
  80   2.0000      -0.071651        -1.9497 
  81   2.0000      -0.047290        -1.2868 
  82   0.0000       0.240716         6.5502 
  83   0.0000       0.241289         6.5658 
  84   0.0000       0.253442         6.8965 
  85   0.0000       0.255365         6.9488 
  86   0.0000       0.257538         7.0080 
  87   0.0000       0.306179         8.3316 
  88   0.0000       0.307135         8.3576 
  89   0.0000       0.307409         8.3650 
  90   0.0000       0.307539         8.3686 
  91   0.0000       0.308119         8.3843 
  92   0.0000       0.309252         8.4152 
  93   0.0000       0.376115        10.2346 
  94   0.0000       0.376567        10.2469 
  95   0.0000       0.379458        10.3256 
  96   0.0000       0.380201        10.3458 
  97   0.0000       0.412472        11.2239 
  98   0.0000       0.413146        11.2423 
  99   0.0000       0.413385        11.2488 
 100   0.0000       0.414835        11.2882 
 101   0.0000       0.443337        12.0638 
 102   0.0000       0.456178        12.4132 
 103   0.0000       0.490035        13.3345 
 104   0.0000       0.490477        13.3466 
 105   0.0000       0.493021        13.4158 
 106   0.0000       0.494414        13.4537 
 107   0.0000       0.504401        13.7255 
 108   0.0000       0.506083        13.7712 
 109   0.0000       0.517898        14.0927 
 110   0.0000       0.524795        14.2804 
 111   0.0000       0.524817        14.2810 
 112   0.0000       0.540910        14.7189 
 113   0.0000       0.549978        14.9657 
 114   0.0000       0.550644        14.9838 
 115   0.0000       0.588246        16.0070 
 116   0.0000       0.589233        16.0339 
 117   0.0000       0.591935        16.1074 
 118   0.0000       0.602845        16.4042 
 119   0.0000       0.616673        16.7805 
 120   0.0000       0.636817        17.3287 
 121   0.0000       0.637091        17.3361 
 122   0.0000       0.638844        17.3838 
 123   0.0000       0.661573        18.0023 
 124   0.0000       0.666835        18.1455 
 125   0.0000       0.667319        18.1587 
 126   0.0000       0.679168        18.4811 
 127   0.0000       0.680396        18.5145 
 128   0.0000       0.682394        18.5689 
 129   0.0000       0.682775        18.5793 
 130   0.0000       0.693060        18.8591 
 131   0.0000       0.693668        18.8757 
 132   0.0000       0.701139        19.0790 
 133   0.0000       0.709740        19.3130 
 134   0.0000       0.711438        19.3592 
 135   0.0000       0.726068        19.7573 
 136   0.0000       0.727361        19.7925 
 137   0.0000       0.733082        19.9482 
 138   0.0000       0.734197        19.9785 
 139   0.0000       0.741761        20.1843 
 140   0.0000       0.741910        20.1884 
 141   0.0000       0.746252        20.3066 
 142   0.0000       0.747188        20.3320 
 143   0.0000       0.747931        20.3523 
 144   0.0000       0.761909        20.7326 
 145   0.0000       0.762247        20.7418 
 146   0.0000       0.771745        21.0002 
 147   0.0000       0.772733        21.0271 
 148   0.0000       0.778114        21.1736 
 149   0.0000       0.779346        21.2071 
 150   0.0000       0.783314        21.3151 
 151   0.0000       0.805395        21.9159 
 152   0.0000       0.809028        22.0148 
 153   0.0000       0.810104        22.0440 
 154   0.0000       0.810292        22.0492 
 155   0.0000       0.810917        22.0662 
 156   0.0000       0.811381        22.0788 
 157   0.0000       0.813631        22.1400 
 158   0.0000       0.821369        22.3506 
 159   0.0000       0.822532        22.3822 
 160   0.0000       0.829768        22.5791 
 161   0.0000       0.837362        22.7858 
 162   0.0000       0.838802        22.8250 
 163   0.0000       0.840954        22.8835 
 164   0.0000       0.858193        23.3526 
 165   0.0000       0.859692        23.3934 
 166   0.0000       0.863668        23.5016 
 167   0.0000       0.889937        24.2164 
 168   0.0000       0.910296        24.7704 
 169   0.0000       0.922930        25.1142 
 170   0.0000       0.924314        25.1519 
 171   0.0000       0.929222        25.2854 
 172   0.0000       0.930449        25.3188 
 173   0.0000       0.954078        25.9618 
 174   0.0000       0.965782        26.2803 
 175   0.0000       0.970996        26.4221 
 176   0.0000       0.973058        26.4783 
 177   0.0000       0.974485        26.5171 
 178   0.0000       0.975580        26.5469 
 179   0.0000       0.982696        26.7405 
 180   0.0000       0.983924        26.7739 
 181   0.0000       1.003144        27.2969 
 182   0.0000       1.003940        27.3186 
 183   0.0000       1.020652        27.7734 
 184   0.0000       1.049376        28.5550 
 185   0.0000       1.050719        28.5915 
 186   0.0000       1.064490        28.9662 
 187   0.0000       1.065553        28.9952 
 188   0.0000       1.069253        29.0958 
 189   0.0000       1.073737        29.2179 
 190   0.0000       1.074842        29.2479 
 191   0.0000       1.075818        29.2745 
 192   0.0000       1.075897        29.2766 
 193   0.0000       1.122795        30.5528 
 194   0.0000       1.124225        30.5917 
 195   0.0000       1.146132        31.1878 
 196   0.0000       1.148117        31.2419 
 197   0.0000       1.149227        31.2721 
 198   0.0000       1.190251        32.3884 
 199   0.0000       1.193325        32.4720 
 200   0.0000       1.220199        33.2033 
 201   0.0000       1.225846        33.3570 
 202   0.0000       1.266589        34.4656 
 203   0.0000       1.312614        35.7180 
 204   0.0000       1.329762        36.1847 
 205   0.0000       1.333152        36.2769 
 206   0.0000       1.408590        38.3297 
 207   0.0000       1.411585        38.4112 
 208   0.0000       1.417148        38.5626 
 209   0.0000       1.418211        38.5915 
 210   0.0000       1.438170        39.1346 
 211   0.0000       1.440490        39.1977 
 212   0.0000       1.441514        39.2256 
 213   0.0000       1.459408        39.7125 
 214   0.0000       1.460135        39.7323 
 215   0.0000       1.525707        41.5166 
 216   0.0000       1.559791        42.4441 
 217   0.0000       1.564069        42.5605 
 218   0.0000       1.579702        42.9859 
 219   0.0000       1.675746        45.5994 
 220   0.0000       1.679279        45.6955 
 221   0.0000       1.689092        45.9625 
 222   0.0000       1.692297        46.0497 
 223   0.0000       1.705673        46.4137 
 224   0.0000       1.711428        46.5703 
 225   0.0000       1.775876        48.3240 
 226   0.0000       1.776540        48.3421 
 227   0.0000       1.818894        49.4946 
 228   0.0000       1.820220        49.5307 
 229   0.0000       1.827035        49.7162 
 230   0.0000       1.828662        49.7604 
 231   0.0000       1.846914        50.2571 
 232   0.0000       1.847838        50.2822 
 233   0.0000       1.849118        50.3171 
 234   0.0000       1.851067        50.3701 
 235   0.0000       1.976370        53.7798 
 236   0.0000       1.989758        54.1441 
 237   0.0000       2.025870        55.1267 
 238   0.0000       2.026509        55.1441 
 239   0.0000       2.027120        55.1607 
 240   0.0000       2.027634        55.1747 
 241   0.0000       2.118443        57.6458 
 242   0.0000       2.118813        57.6558 
 243   0.0000       2.123365        57.7797 
 244   0.0000       2.123437        57.7817 
 245   0.0000       2.158984        58.7489 
 246   0.0000       2.169130        59.0250 
 247   0.0000       2.169536        59.0361 
 248   0.0000       2.170530        59.0631 
 249   0.0000       2.175315        59.1933 
 250   0.0000       2.178159        59.2707 
 251   0.0000       2.180473        59.3337 
 252   0.0000       2.181342        59.3573 
 253   0.0000       2.182648        59.3929 
 254   0.0000       2.185078        59.4590 
 255   0.0000       2.212648        60.2092 
 256   0.0000       2.214195        60.2513 
 257   0.0000       2.223728        60.5107 
 258   0.0000       2.224136        60.5218 
 259   0.0000       2.225036        60.5463 
 260   0.0000       2.226111        60.5755 
 261   0.0000       2.236628        60.8617 
 262   0.0000       2.244868        61.0860 
 263   0.0000       2.246282        61.1244 
 264   0.0000       2.247461        61.1565 
 265   0.0000       2.254046        61.3357 
 266   0.0000       2.254699        61.3535 
 267   0.0000       2.269946        61.7684 
 268   0.0000       2.271005        61.7972 
 269   0.0000       2.287474        62.2453 
 270   0.0000       2.289038        62.2879 
 271   0.0000       2.297228        62.5107 
 272   0.0000       2.297860        62.5279 
 273   0.0000       2.299234        62.5653 
 274   0.0000       2.304035        62.6960 
 275   0.0000       2.356314        64.1186 
 276   0.0000       2.357803        64.1591 
 277   0.0000       2.367490        64.4227 
 278   0.0000       2.369055        64.4653 
 279   0.0000       2.372173        64.5501 
 280   0.0000       2.409280        65.5599 
 281   0.0000       2.409825        65.5747 
 282   0.0000       2.415616        65.7322 
 283   0.0000       2.422805        65.9279 
 284   0.0000       2.424391        65.9710 
 285   0.0000       2.426851        66.0380 
 286   0.0000       2.430052        66.1251 
 287   0.0000       2.453235        66.7559 
 288   0.0000       2.454469        66.7895 
 289   0.0000       2.454731        66.7966 
 290   0.0000       2.455423        66.8154 
 291   0.0000       2.456193        66.8364 
 292   0.0000       2.456778        66.8523 
 293   0.0000       2.464081        67.0511 
 294   0.0000       2.468459        67.1702 
 295   0.0000       2.490949        67.7822 
 296   0.0000       2.504184        68.1423 
 297   0.0000       2.506592        68.2078 
 298   0.0000       2.507781        68.2402 
 299   0.0000       2.509684        68.2920 
 300   0.0000       2.510876        68.3244 
 301   0.0000       2.514573        68.4250 
 302   0.0000       2.514772        68.4304 
 303   0.0000       2.516664        68.4819 
 304   0.0000       2.517182        68.4960 
 305   0.0000       2.517636        68.5084 
 306   0.0000       2.518488        68.5315 
 307   0.0000       2.519693        68.5643 
 308   0.0000       2.520705        68.5919 
 309   0.0000       2.530299        68.8529 
 310   0.0000       2.530919        68.8698 
 311   0.0000       2.531502        68.8857 
 312   0.0000       2.535523        68.9951 
 313   0.0000       2.536613        69.0247 
 314   0.0000       2.543741        69.2187 
 315   0.0000       2.544964        69.2520 
 316   0.0000       2.546565        69.2956 
 317   0.0000       2.552723        69.4631 
 318   0.0000       2.557499        69.5931 
 319   0.0000       2.558866        69.6303 
 320   0.0000       2.569587        69.9220 
 321   0.0000       2.571114        69.9636 
 322   0.0000       2.576289        70.1044 
 323   0.0000       2.577926        70.1489 
 324   0.0000       2.589805        70.4722 
 325   0.0000       2.592091        70.5344 
 326   0.0000       2.603609        70.8478 
 327   0.0000       2.609153        70.9987 
 328   0.0000       2.611017        71.0494 
 329   0.0000       2.618686        71.2581 
 330   0.0000       2.629746        71.5590 
 331   0.0000       2.631474        71.6060 
 332   0.0000       2.634115        71.6779 
 333   0.0000       2.636223        71.7353 
 334   0.0000       2.638872        71.8073 
 335   0.0000       2.640655        71.8559 
 336   0.0000       2.645614        71.9908 
 337   0.0000       2.652883        72.1886 
 338   0.0000       2.655162        72.2506 
 339   0.0000       2.657739        72.3208 
 340   0.0000       2.658239        72.3344 
 341   0.0000       2.661778        72.4307 
 342   0.0000       2.700823        73.4931 
 343   0.0000       2.711745        73.7903 
 344   0.0000       2.713643        73.8420 
 345   0.0000       2.715506        73.8927 
 346   0.0000       2.725381        74.1614 
 347   0.0000       2.727807        74.2274 
 348   0.0000       2.742622        74.6305 
 349   0.0000       2.743736        74.6608 
 350   0.0000       2.758653        75.0668 
 351   0.0000       2.781551        75.6898 
 352   0.0000       2.782728        75.7219 
 353   0.0000       2.785786        75.8051 
 354   0.0000       2.786635        75.8282 
 355   0.0000       2.798352        76.1470 
 356   0.0000       2.799659        76.1826 
 357   0.0000       2.847375        77.4810 
 358   0.0000       2.849157        77.5295 
 359   0.0000       2.849424        77.5368 
 360   0.0000       2.850115        77.5556 
 361   0.0000       2.901386        78.9507 
 362   0.0000       2.925915        79.6182 
 363   0.0000       2.933813        79.8331 
 364   0.0000       2.997662        81.5705 
 365   0.0000       3.000448        81.6463 
 366   0.0000       3.002450        81.7008 
 367   0.0000       3.020394        82.1891 
 368   0.0000       3.026848        82.3647 
 369   0.0000       3.031540        82.4924 
 370   0.0000       3.066166        83.4346 
 371   0.0000       3.073622        83.6375 
 372   0.0000       3.077052        83.7309 
 373   0.0000       3.082431        83.8772 
 374   0.0000       3.085846        83.9701 
 375   0.0000       3.106273        84.5260 
 376   0.0000       3.152603        85.7867 
 377   0.0000       3.182100        86.5893 
 378   0.0000       3.335494        90.7634 
 379   0.0000       3.359809        91.4251 
 380   0.0000       3.362134        91.4883 
 381   0.0000       3.362669        91.5029 
 382   0.0000       3.363011        91.5122 
 383   0.0000       3.368420        91.6594 
 384   0.0000       3.446935        93.7959 
 385   0.0000       3.448832        93.8475 
 386   0.0000       3.450866        93.9028 
 387   0.0000       3.452590        93.9497 
 388   0.0000       3.472223        94.4840 
 389   0.0000       3.525253        95.9270 
 390   0.0000       3.552977        96.6814 
 391   0.0000       3.594781        97.8190 
 392   0.0000       3.595529        97.8393 
 393   0.0000       3.788720       103.0963 
 394   0.0000       3.791122       103.1617 
 395   0.0000       3.810999       103.7025 
 396   0.0000       3.812103       103.7326 
 397   0.0000       3.815468       103.8242 
 398   0.0000       3.816288       103.8465 
 399   0.0000       4.033278       109.7511 
 400   0.0000       4.033657       109.7614 
 401   0.0000       4.035330       109.8069 
 402   0.0000       4.036943       109.8508 
 403   0.0000       4.169359       113.4540 
 404   0.0000       4.170954       113.4974 
 405   0.0000       4.430709       120.5657 
 406   0.0000       4.432138       120.6046 
 407   0.0000       4.437498       120.7505 
 408   0.0000       4.438820       120.7864 
 409   0.0000       4.644154       126.3739 
 410   0.0000       4.646211       126.4298 
 411   0.0000       4.661865       126.8558 
 412   0.0000       4.663280       126.8943 
 413   0.0000       5.127707       139.5320 
 414   0.0000       5.128811       139.5620 
 415   0.0000       5.129239       139.5737 
 416   0.0000       5.130281       139.6020 
 417   0.0000       5.240829       142.6102 
 418   0.0000       5.243914       142.6941 
 419   0.0000       5.246068       142.7528 
 420   0.0000       5.246539       142.7656 
 421   0.0000       5.340510       145.3227 
 422   0.0000       5.359026       145.8265 
 423   0.0000       5.374325       146.2428 
 424   0.0000       5.378734       146.3628 
 425   0.0000       5.379609       146.3866 
 426   0.0000       5.383139       146.4827 
 427   0.0000       5.579567       151.8277 
 428   0.0000       5.585666       151.9937 
 429   0.0000       5.750190       156.4706 
 430   0.0000       5.751898       156.5171 
 431   0.0000       5.754907       156.5990 
 432   0.0000       5.756844       156.6517 
 433   0.0000       6.048484       164.5876 
 434   0.0000       6.052732       164.7032 
 435   0.0000      11.298666       307.4523 
 436   0.0000      11.299322       307.4702 
 437   0.0000      11.313471       307.8552 
 438   0.0000      11.324982       308.1684 
 439   0.0000      11.331551       308.3472 
 440   0.0000      11.332705       308.3786 
 441   0.0000      11.345265       308.7204 
 442   0.0000      11.359360       309.1039 
 443   0.0000      11.367716       309.3313 
 444   0.0000      11.368423       309.3505 
 445   0.0000      11.369297       309.3743 
 446   0.0000      11.369664       309.3843 
 447   0.0000      11.372576       309.4635 
 448   0.0000      11.388277       309.8908 
 449   0.0000      11.392431       310.0038 
 450   0.0000      11.404432       310.3304 
 451   0.0000      11.427448       310.9567 
 452   0.0000      11.430678       311.0446 
 453   0.0000      22.904996       623.2766 
 454   0.0000      22.914827       623.5441 
 455   0.0000      25.338843       689.5050 
 456   0.0000      25.348132       689.7577 
 457   0.0000      25.430095       691.9881 
 458   0.0000      25.438027       692.2039 
 459   0.0000      25.537918       694.9221 
 460   0.0000      25.579273       696.0474 
 461   0.0000      32.678324       889.2224 
 462   0.0000      32.700809       889.8343 
 463   0.0000      35.891716       976.6633 
 464   0.0000      36.025166       980.2946 
 465   0.0000      36.028030       980.3725 
 466   0.0000      36.180521       984.5220 
 467   0.0000     123.871828      3370.7238 

                    ********************************
                    * MULLIKEN POPULATION ANALYSIS *
                    ********************************

-----------------------
MULLIKEN ATOMIC CHARGES
-----------------------
   0 C :   -0.243326
   1 N :   -0.297031
   2 H :    0.114333
   3 H :    0.114327
   4 H :    0.115955
   5 H :    0.268769
   6 H :    0.271599
   7 H :    0.268578
   8 Pb:    1.118405
   9 Cl:   -0.725342
  10 Cl:   -0.724125
  11 Cl:   -0.724036
  12 Cl:   -0.719977
  13 Cl:   -0.726851
  14 Cl:   -0.724717
  15 N :   -0.295796
  16 C :   -0.243421
  17 H :    0.270634
  18 H :    0.268616
  19 H :    0.115327
  20 H :    0.115433
  21 H :    0.114720
  22 H :    0.267926
Sum of atomic charges:   -2.0000000

--------------------------------
MULLIKEN REDUCED ORBITAL CHARGES
--------------------------------
  0 C s       :     3.240880  s :     3.240880
      pz      :     0.996667  p :     2.915905
      px      :     0.982002
      py      :     0.937236
      dz2     :     0.007871  d :     0.080098
      dxz     :     0.020802
      dyz     :     0.019487
      dx2y2   :     0.012351
      dxy     :     0.019588
      f0      :     0.000298  f :     0.006443
      f+1     :     0.000600
      f-1     :     0.000837
      f+2     :     0.000683
      f-2     :     0.002512
      f+3     :     0.000663
      f-3     :     0.000851
  1 N s       :     3.411225  s :     3.411225
      pz      :     1.295808  p :     3.835470
      px      :     1.286920
      py      :     1.252742
      dz2     :     0.004045  d :     0.048072
      dxz     :     0.013096
      dyz     :     0.012192
      dx2y2   :     0.006338
      dxy     :     0.012401
      f0      :     0.000135  f :     0.002263
      f+1     :     0.000201
      f-1     :     0.000208
      f+2     :     0.000208
      f-2     :     0.001064
      f+3     :     0.000223
      f-3     :     0.000225
  2 H s       :     0.864639  s :     0.864639
      pz      :     0.008088  p :     0.021027
      px      :     0.007579
      py      :     0.005361
  3 H s       :     0.864650  s :     0.864650
      pz      :     0.006288  p :     0.021024
      px      :     0.007126
      py      :     0.007610
  4 H s       :     0.862997  s :     0.862997
      pz      :     0.007745  p :     0.021048
      px      :     0.006794
      py      :     0.006509
  5 H s       :     0.685540  s :     0.685540
      pz      :     0.012302  p :     0.045691
      px      :     0.016566
      py      :     0.016824
  6 H s       :     0.681991  s :     0.681991
      pz      :     0.014901  p :     0.046410
      px      :     0.011213
      py      :     0.020296
  7 H s       :     0.685464  s :     0.685464
      pz      :     0.020049  p :     0.045957
      px      :     0.018617
      py      :     0.007291
  8 Pbs       :     4.015749  s :     4.015749
      pz      :     2.233322  p :     6.705694
      px      :     2.234766
      py      :     2.237606
      dz2     :     2.042802  d :    10.134472
      dxz     :     2.014532
      dyz     :     2.017195
      dx2y2   :     2.044766
      dxy     :     2.015177
      f0      :     0.005810  f :     0.025680
      f+1     :     0.003509
      f-1     :     0.004281
      f+2     :     0.002098
      f-2     :     0.000280
      f+3     :     0.004591
      f-3     :     0.005111
  9 Cls       :     5.958443  s :     5.958443
      pz      :     3.944031  p :    11.758966
      px      :     3.898192
      py      :     3.916743
      dz2     :     0.000945  d :     0.007639
      dxz     :     0.000738
      dyz     :     0.002308
      dx2y2   :     0.002676
      dxy     :     0.000973
      f0      :     0.000040  f :     0.000294
      f+1     :     0.000036
      f-1     :     0.000035
      f+2     :     0.000060
      f-2     :     0.000051
      f+3     :     0.000060
      f-3     :     0.000012
 10 Cls       :     5.959033  s :     5.959033
      pz      :     3.930518  p :    11.757318
      px      :     3.936603
      py      :     3.890197
      dz2     :     0.001214  d :     0.007495
      dxz     :     0.002712
      dyz     :     0.000733
      dx2y2   :     0.002348
      dxy     :     0.000488
      f0      :     0.000017  f :     0.000279
      f+1     :     0.000087
      f-1     :     0.000025
      f+2     :     0.000074
      f-2     :     0.000017
      f+3     :     0.000012
      f-3     :     0.000046
 11 Cls       :     5.958946  s :     5.958946
      pz      :     3.896453  p :    11.757378
      px      :     3.936481
      py      :     3.924444
      dz2     :     0.003001  d :     0.007436
      dxz     :     0.000919
      dyz     :     0.001036
      dx2y2   :     0.000360
      dxy     :     0.002120
      f0      :     0.000086  f :     0.000275
      f+1     :     0.000014
      f-1     :     0.000023
      f+2     :     0.000005
      f-2     :     0.000055
      f+3     :     0.000050
      f-3     :     0.000042
 12 Cls       :     5.958473  s :     5.958473
      pz      :     3.943836  p :    11.753276
      px      :     3.893465
      py      :     3.915974
      dz2     :     0.000978  d :     0.007921
      dxz     :     0.000691
      dyz     :     0.002364
      dx2y2   :     0.002948
      dxy     :     0.000941
      f0      :     0.000042  f :     0.000307
      f+1     :     0.000038
      f-1     :     0.000036
      f+2     :     0.000067
      f-2     :     0.000047
      f+3     :     0.000065
      f-3     :     0.000013
 13 Cls       :     5.959107  s :     5.959107
      pz      :     3.900084  p :    11.760106
      px      :     3.938512
      py      :     3.921510
      dz2     :     0.002874  d :     0.007361
      dxz     :     0.000837
      dyz     :     0.000973
      dx2y2   :     0.000427
      dxy     :     0.002249
      f0      :     0.000083  f :     0.000278
      f+1     :     0.000013
      f-1     :     0.000018
      f+2     :     0.000005
      f-2     :     0.000057
      f+3     :     0.000061
      f-3     :     0.000040
 14 Cls       :     5.959148  s :     5.959148
      pz      :     3.935404  p :    11.758062
      px      :     3.933238
      py      :     3.889420
      dz2     :     0.001114  d :     0.007249
      dxz     :     0.002440
      dyz     :     0.000639
      dx2y2   :     0.002518
      dxy     :     0.000538
      f0      :     0.000018  f :     0.000258
      f+1     :     0.000065
      f-1     :     0.000030
      f+2     :     0.000064
      f-2     :     0.000018
      f+3     :     0.000013
      f-3     :     0.000051
 15 N s       :     3.410744  s :     3.410744
      pz      :     1.298061  p :     3.834699
      px      :     1.288013
      py      :     1.248625
      dz2     :     0.004048  d :     0.048090
      dxz     :     0.012916
      dyz     :     0.012199
      dx2y2   :     0.006415
      dxy     :     0.012511
      f0      :     0.000135  f :     0.002263
      f+1     :     0.000202
      f-1     :     0.000209
      f+2     :     0.000208
      f-2     :     0.001053
      f+3     :     0.000228
      f-3     :     0.000229
 16 C s       :     3.240987  s :     3.240987
      pz      :     0.997544  p :     2.915907
      px      :     0.984455
      py      :     0.933908
      dz2     :     0.007820  d :     0.080082
      dxz     :     0.020761
      dyz     :     0.019386
      dx2y2   :     0.012443
      dxy     :     0.019671
      f0      :     0.000294  f :     0.006446
      f+1     :     0.000600
      f-1     :     0.000854
      f+2     :     0.000679
      f-2     :     0.002481
      f+3     :     0.000666
      f-3     :     0.000871
 17 H s       :     0.682778  s :     0.682778
      pz      :     0.014845  p :     0.046588
      px      :     0.011160
      py      :     0.020583
 18 H s       :     0.685184  s :     0.685184
      pz      :     0.012421  p :     0.046199
      px      :     0.016520
      py      :     0.017259
 19 H s       :     0.863632  s :     0.863632
      pz      :     0.007794  p :     0.021041
      px      :     0.006763
      py      :     0.006484
 20 H s       :     0.863521  s :     0.863521
      pz      :     0.006196  p :     0.021046
      px      :     0.007229
      py      :     0.007621
 21 H s       :     0.864265  s :     0.864265
      pz      :     0.008197  p :     0.021014
      px      :     0.007586
      py      :     0.005231
 22 H s       :     0.687217  s :     0.687217
      pz      :     0.019301  p :     0.044857
      px      :     0.018341
      py      :     0.007214


                     *******************************
                     * LOEWDIN POPULATION ANALYSIS *
                     *******************************

----------------------
LOEWDIN ATOMIC CHARGES
----------------------
   0 C :   -0.324685
   1 N :    0.039648
   2 H :    0.109720
   3 H :    0.109511
   4 H :    0.110133
   5 H :    0.138037
   6 H :    0.134829
   7 H :    0.137249
   8 Pb:    0.250313
   9 Cl:   -0.528209
  10 Cl:   -0.527474
  11 Cl:   -0.526176
  12 Cl:   -0.516707
  13 Cl:   -0.535451
  14 Cl:   -0.528421
  15 N :    0.040213
  16 C :   -0.324370
  17 H :    0.134234
  18 H :    0.135698
  19 H :    0.109904
  20 H :    0.109986
  21 H :    0.109798
  22 H :    0.142220

-------------------------------
LOEWDIN REDUCED ORBITAL CHARGES
-------------------------------
  0 C s       :     2.849181  s :     2.849181
      pz      :     1.050236  p :     3.101038
      px      :     1.040712
      py      :     1.010090
      dz2     :     0.030915  d :     0.335001
      dxz     :     0.085687
      dyz     :     0.084745
      dx2y2   :     0.045767
      dxy     :     0.087888
      f0      :     0.004605  f :     0.039464
      f+1     :     0.004304
      f-1     :     0.006628
      f+2     :     0.004149
      f-2     :     0.006869
      f+3     :     0.005725
      f-3     :     0.007184
  1 N s       :     3.018399  s :     3.018399
      pz      :     1.266590  p :     3.778122
      px      :     1.262715
      py      :     1.248818
      dz2     :     0.014277  d :     0.154163
      dxz     :     0.040013
      dyz     :     0.038731
      dx2y2   :     0.021240
      dxy     :     0.039902
      f0      :     0.001217  f :     0.009667
      f+1     :     0.001110
      f-1     :     0.001469
      f+2     :     0.000986
      f-2     :     0.001899
      f+3     :     0.001349
      f-3     :     0.001637
  2 H s       :     0.830397  s :     0.830397
      pz      :     0.022458  p :     0.059882
      px      :     0.021082
      py      :     0.016343
  3 H s       :     0.830592  s :     0.830592
      pz      :     0.018042  p :     0.059897
      px      :     0.021113
      py      :     0.020742
  4 H s       :     0.829927  s :     0.829927
      pz      :     0.022737  p :     0.059940
      px      :     0.019149
      py      :     0.018053
  5 H s       :     0.719703  s :     0.719703
      pz      :     0.042057  p :     0.142260
      px      :     0.050076
      py      :     0.050127
  6 H s       :     0.719277  s :     0.719277
      pz      :     0.045554  p :     0.145894
      px      :     0.038530
      py      :     0.061810
  7 H s       :     0.719400  s :     0.719400
      pz      :     0.061637  p :     0.143351
      px      :     0.056834
      py      :     0.024880
  8 Pbs       :     3.940110  s :     3.940110
      pz      :     2.383771  p :     7.162516
      px      :     2.386109
      py      :     2.392637
      dz2     :     2.206098  d :    10.581768
      dxz     :     2.048115
      dyz     :     2.061360
      dx2y2   :     2.215780
      dxy     :     2.050415
      f0      :     0.015287  f :     0.065294
      f+1     :     0.008829
      f-1     :     0.010701
      f+2     :     0.004960
      f-2     :     0.000600
      f+3     :     0.011856
      f-3     :     0.013060
  9 Cls       :     5.858397  s :     5.858397
      pz      :     3.921843  p :    11.656386
      px      :     3.845599
      py      :     3.888944
      dz2     :     0.001446  d :     0.012796
      dxz     :     0.000926
      dyz     :     0.004168
      dx2y2   :     0.004744
      dxy     :     0.001511
      f0      :     0.000068  f :     0.000630
      f+1     :     0.000065
      f-1     :     0.000063
      f+2     :     0.000141
      f-2     :     0.000119
      f+3     :     0.000144
      f-3     :     0.000030
 10 Cls       :     5.858708  s :     5.858708
      pz      :     3.902296  p :    11.655694
      px      :     3.910031
      py      :     3.843367
      dz2     :     0.001973  d :     0.012481
      dxz     :     0.004858
      dyz     :     0.000775
      dx2y2   :     0.004423
      dxy     :     0.000452
      f0      :     0.000022  f :     0.000590
      f+1     :     0.000197
      f-1     :     0.000047
      f+2     :     0.000184
      f-2     :     0.000022
      f+3     :     0.000030
      f-3     :     0.000089
 11 Cls       :     5.857678  s :     5.857678
      pz      :     3.843214  p :    11.655390
      px      :     3.912608
      py      :     3.899568
      dz2     :     0.005308  d :     0.012518
      dxz     :     0.001226
      dyz     :     0.001709
      dx2y2   :     0.000397
      dxy     :     0.003879
      f0      :     0.000193  f :     0.000590
      f+1     :     0.000022
      f-1     :     0.000047
      f+2     :     0.000006
      f-2     :     0.000134
      f+3     :     0.000103
      f-3     :     0.000085
 12 Cls       :     5.854453  s :     5.854453
      pz      :     3.920598  p :    11.648258
      px      :     3.840925
      py      :     3.886734
      dz2     :     0.001517  d :     0.013340
      dxz     :     0.000858
      dyz     :     0.004315
      dx2y2   :     0.005275
      dxy     :     0.001375
      f0      :     0.000071  f :     0.000657
      f+1     :     0.000069
      f-1     :     0.000064
      f+2     :     0.000160
      f-2     :     0.000107
      f+3     :     0.000152
      f-3     :     0.000034
 13 Cls       :     5.861823  s :     5.861823
      pz      :     3.847098  p :    11.660855
      px      :     3.915560
      py      :     3.898196
      dz2     :     0.004931  d :     0.012185
      dxz     :     0.001162
      dyz     :     0.001568
      dx2y2   :     0.000474
      dxy     :     0.004050
      f0      :     0.000182  f :     0.000589
      f+1     :     0.000023
      f-1     :     0.000037
      f+2     :     0.000007
      f-2     :     0.000136
      f+3     :     0.000125
      f-3     :     0.000077
 14 Cls       :     5.858336  s :     5.858336
      pz      :     3.908243  p :    11.657367
      px      :     3.907878
      py      :     3.841245
      dz2     :     0.001856  d :     0.012170
      dxz     :     0.004349
      dyz     :     0.000651
      dx2y2   :     0.004812
      dxy     :     0.000502
      f0      :     0.000024  f :     0.000548
      f+1     :     0.000148
      f-1     :     0.000058
      f+2     :     0.000161
      f-2     :     0.000025
      f+3     :     0.000030
      f-3     :     0.000102
 15 N s       :     3.018302  s :     3.018302
      pz      :     1.266436  p :     3.777625
      px      :     1.262646
      py      :     1.248543
      dz2     :     0.014253  d :     0.154198
      dxz     :     0.039711
      dyz     :     0.038685
      dx2y2   :     0.021499
      dxy     :     0.040050
      f0      :     0.001199  f :     0.009662
      f+1     :     0.001091
      f-1     :     0.001491
      f+2     :     0.000982
      f-2     :     0.001891
      f+3     :     0.001340
      f-3     :     0.001668
 16 C s       :     2.849174  s :     2.849174
      pz      :     1.051115  p :     3.100919
      px      :     1.042093
      py      :     1.007711
      dz2     :     0.031085  d :     0.334818
      dxz     :     0.085130
      dyz     :     0.084299
      dx2y2   :     0.046130
      dxy     :     0.088174
      f0      :     0.004538  f :     0.039460
      f+1     :     0.004214
      f-1     :     0.006764
      f+2     :     0.004132
      f-2     :     0.006809
      f+3     :     0.005700
      f-3     :     0.007303
 17 H s       :     0.719386  s :     0.719386
      pz      :     0.045318  p :     0.146381
      px      :     0.038408
      py      :     0.062655
 18 H s       :     0.719630  s :     0.719630
      pz      :     0.042643  p :     0.144672
      px      :     0.050338
      py      :     0.051691
 19 H s       :     0.830158  s :     0.830158
      pz      :     0.022873  p :     0.059937
      px      :     0.019102
      py      :     0.017963
 20 H s       :     0.830074  s :     0.830074
      pz      :     0.017825  p :     0.059939
      px      :     0.021371
      py      :     0.020743
 21 H s       :     0.830341  s :     0.830341
      pz      :     0.022732  p :     0.059860
      px      :     0.021129
      py      :     0.015999
 22 H s       :     0.718997  s :     0.718997
      pz      :     0.058855  p :     0.138784
      px      :     0.055418
      py      :     0.024510


                      *****************************
                      * MAYER POPULATION ANALYSIS *
                      *****************************

  NA   - Mulliken gross atomic population
  ZA   - Total nuclear charge
  QA   - Mulliken gross atomic charge
  VA   - Mayer's total valence
  BVA  - Mayer's bonded valence
  FA   - Mayer's free valence

  ATOM       NA         ZA         QA         VA         BVA        FA
  0 C      6.2433     6.0000    -0.2433     3.9523     3.9523    -0.0000
  1 N      7.2970     7.0000    -0.2970     3.1189     3.1189    -0.0000
  2 H      0.8857     1.0000     0.1143     0.9668     0.9668    -0.0000
  3 H      0.8857     1.0000     0.1143     0.9661     0.9661    -0.0000
  4 H      0.8840     1.0000     0.1160     0.9665     0.9665     0.0000
  5 H      0.7312     1.0000     0.2688     1.0211     1.0211     0.0000
  6 H      0.7284     1.0000     0.2716     1.0215     1.0215    -0.0000
  7 H      0.7314     1.0000     0.2686     1.0238     1.0238    -0.0000
  8 Pb    20.8816    22.0000     1.1184     1.5407     1.5407     0.0000
  9 Cl    17.7253    17.0000    -0.7253     0.5016     0.5016    -0.0000
 10 Cl    17.7241    17.0000    -0.7241     0.5034     0.5034    -0.0000
 11 Cl    17.7240    17.0000    -0.7240     0.5032     0.5032     0.0000
 12 Cl    17.7200    17.0000    -0.7200     0.5105     0.5105     0.0000
 13 Cl    17.7269    17.0000    -0.7269     0.4990     0.4990    -0.0000
 14 Cl    17.7247    17.0000    -0.7247     0.5021     0.5021     0.0000
 15 N      7.2958     7.0000    -0.2958     3.1202     3.1202    -0.0000
 16 C      6.2434     6.0000    -0.2434     3.9514     3.9514     0.0000
 17 H      0.7294     1.0000     0.2706     1.0218     1.0218    -0.0000
 18 H      0.7314     1.0000     0.2686     1.0252     1.0252     0.0000
 19 H      0.8847     1.0000     0.1153     0.9663     0.9663     0.0000
 20 H      0.8846     1.0000     0.1154     0.9665     0.9665    -0.0000
 21 H      0.8853     1.0000     0.1147     0.9664     0.9664    -0.0000
 22 H      0.7321     1.0000     0.2679     1.0213     1.0213    -0.0000

  Mayer bond orders larger than 0.1
B(  0-C ,  1-N ) :   0.9576 B(  0-C ,  2-H ) :   0.9794 B(  0-C ,  3-H ) :   0.9789 
B(  0-C ,  4-H ) :   0.9788 B(  1-N ,  5-H ) :   0.7703 B(  1-N ,  6-H ) :   0.7622 
B(  1-N ,  7-H ) :   0.7668 B(  5-H , 11-Cl) :   0.2531 B(  6-H ,  9-Cl) :   0.2628 
B(  7-H , 10-Cl) :   0.2594 B(  8-Pb,  9-Cl) :   0.2517 B(  8-Pb, 10-Cl) :   0.2566 
B(  8-Pb, 11-Cl) :   0.2633 B(  8-Pb, 12-Cl) :   0.2606 B(  8-Pb, 13-Cl) :   0.2476 
B(  8-Pb, 14-Cl) :   0.2671 B( 12-Cl, 17-H ) :   0.2625 B( 13-Cl, 18-H ) :   0.2649 
B( 14-Cl, 22-H ) :   0.2484 B( 15-N , 16-C ) :   0.9576 B( 15-N , 17-H ) :   0.7623 
B( 15-N , 18-H ) :   0.7632 B( 15-N , 22-H ) :   0.7752 B( 16-C , 19-H ) :   0.9787 
B( 16-C , 20-H ) :   0.9788 B( 16-C , 21-H ) :   0.9793 

-------
TIMINGS
-------

Total SCF time: 0 days 0 hours 6 min 20 sec 

Total time                  ....     380.585 sec
Sum of individual times     ....     312.318 sec  ( 82.1%)

Fock matrix formation       ....     296.169 sec  ( 77.8%)
  Coulomb formation         ....     247.062 sec  ( 83.4% of F)
  Split-RI-J                ....      19.822 sec  (  6.7% of F)
  Chain of spheres X        ....     293.088 sec  ( 99.0% of F)
  COS-X 1 center corr.      ....       0.000 sec  (  0.0% of F)
  XC integration            ....      49.223 sec  ( 16.6% of F)
    Basis function eval.    ....      23.455 sec  ( 47.7% of XC)
    Density eval.           ....      12.535 sec  ( 25.5% of XC)
    XC-Functional eval.     ....       2.300 sec  (  4.7% of XC)
    XC-Potential eval.      ....       9.730 sec  ( 19.8% of XC)
Diagonalization             ....       0.262 sec  (  0.1%)
Density matrix formation    ....       0.100 sec  (  0.0%)
Population analysis         ....       0.408 sec  (  0.1%)
Initial guess               ....       0.838 sec  (  0.2%)
Orbital Transformation      ....       0.000 sec  (  0.0%)
Orbital Orthonormalization  ....       0.823 sec  (  0.2%)
DIIS solution               ....       0.062 sec  (  0.0%)
SOSCF solution              ....       0.485 sec  (  0.1%)
Grid generation             ....      13.993 sec  (  3.7%)

------------------------------------------------------------------------------
                              ORCA MP2 CALCULATION
------------------------------------------------------------------------------


----------------------
RI-MP2 ENERGY+GRADIENT
----------------------
Dimension of the basis                    ...  468
Memory devoted to MP2                     ... 1000 MB   
Data format for buffers                   ... DOUBLE
Compression type for matrix containers    ... UNCOMPRESSED
Overall scaling of the MP2 energy         ...   2.700e-01 Eh
Calculating two index integrals           ... done (    0.021 sec)
Cholesky decomposition of the V-matrix    ... done
Cholesky decomposition of V**-1           ... done (    0.085 sec)

-----------------
RI-TRANSFORMATION (AUX index driven)
-----------------

Dimension of the orbital-basis         ... 468
Dimension of the aux-basis             ... 810
Transformation of internal MOs         ...    0-  81
Transformation of internal/external MOs...    0-  81 to   82- 467
Number Format for Storage              ... Double (8 Byte)
Integral mode                          ... Direct

First Phase: integral generation and transformation of MO indices
  Aux angular momentum 0               ... done (    1.973 sec)
  Aux angular momentum 1               ... done (    1.841 sec)
  Aux angular momentum 2               ... done (    2.704 sec)
  Aux angular momentum 3               ... done (    1.344 sec)
  Aux angular momentum 4               ... done (    1.373 sec)
Closing buffer VIJ ( 0.02 GB; CompressionRatio= 1.98)
Closing buffer VIA ( 0.19 GB; CompressionRatio= 1.00)
  Phase 1 completed in     9.348 sec
Second Phase: sorting and transformation of aux index

IJ-Transformation
Memory available                       ... 972 MB 
Max. # MO pairs treated in a batch     ... 82    
# of internal orbitals                 ... 82
# batches for internal orbitals        ... 1
Closing buffer IJV ( 0.02 GB; CompressionRatio= 1.00)
(ij|v) transformation done in     0.749 sec

IA-Transformation
Memory available                       ... 972 MB 
Max. # MO pairs treated in a batch     ... 82    
# of internal orbitals                 ... 82
# batches for internal orbitals        ... 1
Closing buffer IAV ( 0.19 GB; CompressionRatio= 1.00)
(ia|v) transformation done in     2.904 sec

  Phase 2 completed in     4.433 sec
RI-Integral transformation completed in    13.783 sec
Opening buffers                              ... done

Starting loop over batches of integrals:

Operator 0  - window                       ... (  0- 81)x( 82-467)
Operator 0  - Memory available             ...  1000 MB
Operator 0  - Memory needed per MO         ...   4.8 MB
Operator 0  - Number of orbitals per batch ... 82
Operator 0  - Number of batches            ... 1

OPERATOR  0   PASS   0:  MOs     0 ...   81
  Reading integrals       ... ok
  Internal MO   2
  Internal MO   5
  Internal MO   8
  Internal MO  11
  Internal MO  14
  Internal MO  17
  Internal MO  20
  Internal MO  23
  Internal MO  26
  Internal MO  29
  Internal MO  32
  Internal MO  35
  Internal MO  38
  Internal MO  41
  Internal MO  44
  Internal MO  47
  Internal MO  50
  Internal MO  53
  Internal MO  56
  Internal MO  59
  Internal MO  62
  Internal MO  65
  Internal MO  68
  Internal MO  71
  Internal MO  74
  Internal MO  77
  Internal MO  80
Closing buffer GIPV ( 0.23 GB; CompressionRatio= 1.00)
Time spent in pair loops =   978.933 sec

-----------------------------------------------
 RI-MP2 CORRELATION ENERGY:     -1.013169422 Eh
-----------------------------------------------


---------------------
MP2 DENSITY FORMATION
---------------------

Completing the external part of the density      ... done
Storing the unrelaxed density                    ... done

Calculating the xc-kernel                        ... done
Calculating G(D)                                 ... done
Completing the Lagrangian                        ... done
Solving the Z-vector equations                   ... 

------------------------------------------------------------------------------
                           ORCA CP-SCF CALCULATION
------------------------------------------------------------------------------

Input orbitals are from        ... PbCl6NH3CH3-2_mp2_sp_3.orca.gbw
Input Perturbation             ... PbCl6NH3CH3-2_mp2_sp_3.orca.pin.tmp
Wavefunction output            ... PbCl6NH3CH3-2_mp2_sp_3.orca.pout.tmp
Perturbation mode              ... Real perturbation
Solver                         ... POPLE
Max. number of iterations      ... 128
Convergence tolerance          ... 1.000e-08
Integral handling              ... Direct
COSX GridX                     ... 1
Number of perturbations        ... 1
[...]
      pz      :     0.008366  p :     0.021755
      px      :     0.007797
      py      :     0.005592
 22 H s       :     0.695728  s :     0.695728
      pz      :     0.019210  p :     0.045012
      px      :     0.018290
      py      :     0.007512


                     *******************************
                     * LOEWDIN POPULATION ANALYSIS *
                     *******************************

----------------------
LOEWDIN ATOMIC CHARGES
----------------------
   0 C :   -0.338996
   1 N :    0.033857
   2 H :    0.112237
   3 H :    0.112029
   4 H :    0.112635
   5 H :    0.135112
   6 H :    0.131880
   7 H :    0.134220
   8 Pb:    0.185422
   9 Cl:   -0.510343
  10 Cl:   -0.509444
  11 Cl:   -0.508185
  12 Cl:   -0.498803
  13 Cl:   -0.517482
  14 Cl:   -0.510321
  15 N :    0.034418
  16 C :   -0.338675
  17 H :    0.131244
  18 H :    0.132666
  19 H :    0.112418
  20 H :    0.112496
  21 H :    0.112313
  22 H :    0.139302

-------------------------------
LOEWDIN REDUCED ORBITAL CHARGES
-------------------------------
  0 C s       :     2.849993  s :     2.849993
      pz      :     1.052325  p :     3.107635
      px      :     1.042864
      py      :     1.012446
      dz2     :     0.032957  d :     0.340314
      dxz     :     0.086078
      dyz     :     0.085241
      dx2y2   :     0.047800
      dxy     :     0.088239
      f0      :     0.004836  f :     0.041054
      f+1     :     0.004500
      f-1     :     0.006816
      f+2     :     0.004325
      f-2     :     0.007251
      f+3     :     0.005949
      f-3     :     0.007377
  1 N s       :     3.020395  s :     3.020395
      pz      :     1.263530  p :     3.768082
      px      :     1.259508
      py      :     1.245044
      dz2     :     0.016609  d :     0.166526
      dxz     :     0.042657
      dyz     :     0.041254
      dx2y2   :     0.023596
      dxy     :     0.042411
      f0      :     0.001418  f :     0.011140
      f+1     :     0.001299
      f-1     :     0.001653
      f+2     :     0.001169
      f-2     :     0.002219
      f+3     :     0.001554
      f-3     :     0.001829
  2 H s       :     0.825730  s :     0.825730
      pz      :     0.023192  p :     0.062032
      px      :     0.021814
      py      :     0.017026
  3 H s       :     0.825921  s :     0.825921
      pz      :     0.018734  p :     0.062050
      px      :     0.021806
      py      :     0.021510
  4 H s       :     0.825282  s :     0.825282
      pz      :     0.023432  p :     0.062083
      px      :     0.019860
      py      :     0.018791
  5 H s       :     0.721516  s :     0.721516
      pz      :     0.042533  p :     0.143372
      px      :     0.050401
      py      :     0.050438
  6 H s       :     0.721180  s :     0.721180
      pz      :     0.045890  p :     0.146940
      px      :     0.039009
      py      :     0.062041
  7 H s       :     0.721331  s :     0.721331
      pz      :     0.061913  p :     0.144449
      px      :     0.057134
      py      :     0.025402
  8 Pbs       :     3.917377  s :     3.917377
      pz      :     2.413404  p :     7.251094
      px      :     2.415585
      py      :     2.422106
      dz2     :     2.196196  d :    10.546273
      dxz     :     2.043129
      dyz     :     2.055941
      dx2y2   :     2.205681
      dxy     :     2.045325
      f0      :     0.019981  f :     0.099835
      f+1     :     0.013804
      f-1     :     0.015606
      f+2     :     0.010147
      f-2     :     0.005708
      f+3     :     0.016725
      f-3     :     0.017864
  9 Cls       :     5.855900  s :     5.855900
      pz      :     3.904526  p :    11.598453
      px      :     3.823767
      py      :     3.870161
      dz2     :     0.009320  d :     0.052667
      dxz     :     0.008861
      dyz     :     0.012196
      dx2y2   :     0.012788
      dxy     :     0.009502
      f0      :     0.000448  f :     0.003323
      f+1     :     0.000445
      f-1     :     0.000445
      f+2     :     0.000532
      f-2     :     0.000504
      f+3     :     0.000533
      f-3     :     0.000415
 10 Cls       :     5.856228  s :     5.856228
      pz      :     3.883934  p :    11.597582
      px      :     3.892066
      py      :     3.821582
      dz2     :     0.009908  d :     0.052352
      dxz     :     0.012925
      dyz     :     0.008711
      dx2y2   :     0.012427
      dxy     :     0.008381
      f0      :     0.000402  f :     0.003281
      f+1     :     0.000589
      f-1     :     0.000428
      f+2     :     0.000577
      f-2     :     0.000402
      f+3     :     0.000411
      f-3     :     0.000471
 11 Cls       :     5.855189  s :     5.855189
      pz      :     3.821362  p :    11.597347
      px      :     3.894800
      py      :     3.881185
      dz2     :     0.013345  d :     0.052369
      dxz     :     0.009183
      dyz     :     0.009691
      dx2y2   :     0.008249
      dxy     :     0.011901
      f0      :     0.000585  f :     0.003280
      f+1     :     0.000407
      f-1     :     0.000433
      f+2     :     0.000382
      f-2     :     0.000521
      f+3     :     0.000486
      f-3     :     0.000466
 12 Cls       :     5.852013  s :     5.852013
      pz      :     3.903233  p :    11.590184
      px      :     3.819085
      py      :     3.867866
      dz2     :     0.009397  d :     0.053251
      dxz     :     0.008800
      dyz     :     0.012354
      dx2y2   :     0.013336
      dxy     :     0.009365
      f0      :     0.000452  f :     0.003354
      f+1     :     0.000449
      f-1     :     0.000447
      f+2     :     0.000553
      f-2     :     0.000492
      f+3     :     0.000542
      f-3     :     0.000420
 13 Cls       :     5.859300  s :     5.859300
      pz      :     3.825209  p :    11.602877
      px      :     3.897906
      py      :     3.879762
      dz2     :     0.012966  d :     0.052027
      dxz     :     0.009114
      dyz     :     0.009546
      dx2y2   :     0.008329
      dxy     :     0.012072
      f0      :     0.000574  f :     0.003277
      f+1     :     0.000407
      f-1     :     0.000422
      f+2     :     0.000383
      f-2     :     0.000523
      f+3     :     0.000510
      f-3     :     0.000459
 14 Cls       :     5.855840  s :     5.855840
      pz      :     3.890110  p :    11.599256
      px      :     3.889734
      py      :     3.819412
      dz2     :     0.009767  d :     0.051991
      dxz     :     0.012396
      dyz     :     0.008579
      dx2y2   :     0.012820
      dxy     :     0.008429
      f0      :     0.000403  f :     0.003234
      f+1     :     0.000537
      f-1     :     0.000438
      f+2     :     0.000553
      f-2     :     0.000405
      f+3     :     0.000413
      f-3     :     0.000486
 15 N s       :     3.020296  s :     3.020296
      pz      :     1.263455  p :     3.767610
      px      :     1.259487
      py      :     1.244668
      dz2     :     0.016576  d :     0.166541
      dxz     :     0.042318
      dyz     :     0.041224
      dx2y2   :     0.023852
      dxy     :     0.042571
      f0      :     0.001400  f :     0.011134
      f+1     :     0.001279
      f-1     :     0.001675
      f+2     :     0.001166
      f-2     :     0.002209
      f+3     :     0.001546
      f-3     :     0.001860
 16 C s       :     2.849985  s :     2.849985
      pz      :     1.053194  p :     3.107515
      px      :     1.044235
      py      :     1.010085
      dz2     :     0.033120  d :     0.340125
      dxz     :     0.085499
      dyz     :     0.084811
      dx2y2   :     0.048147
      dxy     :     0.088548
      f0      :     0.004769  f :     0.041050
      f+1     :     0.004411
      f-1     :     0.006951
      f+2     :     0.004310
      f-2     :     0.007187
      f+3     :     0.005926
      f-3     :     0.007495
 17 H s       :     0.721339  s :     0.721339
      pz      :     0.045656  p :     0.147417
      px      :     0.038890
      py      :     0.062871
 18 H s       :     0.721586  s :     0.721586
      pz      :     0.043115  p :     0.145747
      px      :     0.050656
      py      :     0.051976
 19 H s       :     0.825495  s :     0.825495
      pz      :     0.023569  p :     0.062087
      px      :     0.019814
      py      :     0.018704
 20 H s       :     0.825416  s :     0.825416
      pz      :     0.018514  p :     0.062087
      px      :     0.022062
      py      :     0.021512
 21 H s       :     0.825684  s :     0.825684
      pz      :     0.023463  p :     0.062003
      px      :     0.021857
      py      :     0.016683
 22 H s       :     0.720749  s :     0.720749
      pz      :     0.059179  p :     0.139949
      px      :     0.055744
      py      :     0.025025


                      *****************************
                      * MAYER POPULATION ANALYSIS *
                      *****************************

  NA   - Mulliken gross atomic population
  ZA   - Total nuclear charge
  QA   - Mulliken gross atomic charge
  VA   - Mayer's total valence
  BVA  - Mayer's bonded valence
  FA   - Mayer's free valence

  ATOM       NA         ZA         QA         VA         BVA        FA
  0 C      6.2695     6.0000    -0.2695     4.0002     3.8824     0.1179
  1 N      7.2892     7.0000    -0.2892     3.2023     3.0553     0.1470
  2 H      0.8811     1.0000     0.1189     0.9694     0.9496     0.0198
  3 H      0.8811     1.0000     0.1189     0.9687     0.9489     0.0198
  4 H      0.8795     1.0000     0.1205     0.9691     0.9493     0.0198
  5 H      0.7401     1.0000     0.2599     1.0290     1.0070     0.0220
  6 H      0.7373     1.0000     0.2627     1.0293     1.0074     0.0219
  7 H      0.7406     1.0000     0.2594     1.0319     1.0098     0.0221
  8 Pb    20.9688    22.0000     1.0312     1.9841     1.6223     0.3618
  9 Cl    17.7004    17.0000    -0.7004     0.7845     0.5274     0.2571
 10 Cl    17.6989    17.0000    -0.6989     0.7867     0.5294     0.2573
 11 Cl    17.6989    17.0000    -0.6989     0.7864     0.5292     0.2573
 12 Cl    17.6947    17.0000    -0.6947     0.7937     0.5364     0.2573
 13 Cl    17.7019    17.0000    -0.7019     0.7819     0.5249     0.2570
 14 Cl    17.6996    17.0000    -0.6996     0.7855     0.5281     0.2574
 15 N      7.2879     7.0000    -0.2879     3.2034     3.0565     0.1469
 16 C      6.2696     6.0000    -0.2696     3.9993     3.8815     0.1178
 17 H      0.7386     1.0000     0.2614     1.0298     1.0079     0.0219
 18 H      0.7406     1.0000     0.2594     1.0333     1.0112     0.0220
 19 H      0.8801     1.0000     0.1199     0.9689     0.9491     0.0198
 20 H      0.8800     1.0000     0.1200     0.9691     0.9493     0.0198
 21 H      0.8808     1.0000     0.1192     0.9690     0.9493     0.0198
 22 H      0.7407     1.0000     0.2593     1.0292     1.0071     0.0221

  Mayer bond orders larger than 0.1
B(  0-C ,  1-N ) :   0.9400 B(  0-C ,  2-H ) :   0.9606 B(  0-C ,  3-H ) :   0.9602 
B(  0-C ,  4-H ) :   0.9600 B(  1-N ,  5-H ) :   0.7509 B(  1-N ,  6-H ) :   0.7431 
B(  1-N ,  7-H ) :   0.7475 B(  5-H , 11-Cl) :   0.2586 B(  6-H ,  9-Cl) :   0.2679 
B(  7-H , 10-Cl) :   0.2649 B(  8-Pb,  9-Cl) :   0.2644 B(  8-Pb, 10-Cl) :   0.2693 
B(  8-Pb, 11-Cl) :   0.2762 B(  8-Pb, 12-Cl) :   0.2732 B(  8-Pb, 13-Cl) :   0.2602 
B(  8-Pb, 14-Cl) :   0.2801 B( 12-Cl, 17-H ) :   0.2679 B( 13-Cl, 18-H ) :   0.2703 
B( 14-Cl, 22-H ) :   0.2539 B( 15-N , 16-C ) :   0.9401 B( 15-N , 17-H ) :   0.7432 
B( 15-N , 18-H ) :   0.7440 B( 15-N , 22-H ) :   0.7555 B( 16-C , 19-H ) :   0.9599 
B( 16-C , 20-H ) :   0.9601 B( 16-C , 21-H ) :   0.9606 


-------
TIMINGS
-------

Total time                : 1768.986 sec
Integral trafo            :   13.794 sec (  0.8%)
I/O of integrals          :    1.038 sec (  0.1%)
K(i,j) Operators          :  110.681 sec (  6.3%)
T(i,j) pair energies      :   16.257 sec (  0.9%)
V-calculation             :    0.021 sec (  0.0%)
V**(-1/2)                 :    0.085 sec (  0.0%)
Gamma(ia|P)               :   97.804 sec (  5.5%)
Gamma-Trafo               :    7.229 sec (  0.4%)
D(virtual)                :   48.142 sec (  2.7%)
D(internal)               :  129.596 sec (  7.3%)
W(virtual)                :   96.843 sec (  5.5%)
W(internal)               :  411.257 sec ( 23.2%)
L(virtual)                :   52.693 sec (  3.0%)
L(internal)               :    2.467 sec (  0.1%)
G(D)                      :   43.172 sec (  2.4%)
G(Z)                      :   40.697 sec (  2.3%)
Z-Vector Solution         :  351.411 sec ( 19.9%)
Z-Vector Solution         :  351.411 sec ( 19.9%)
3-Index Derivative 
+ Separable RIJ part      :   17.554 sec (  1.0%)
2-Index Derivative 
+ Separable RIJ part      :    0.097 sec (  0.0%)
Separable Gradient (COSX) :  317.708 sec ( 18.0%)


---------------------------------------
MP2 TOTAL ENERGY:    -3146.563722657 Eh
---------------------------------------

The final MP2 gradient
  0:  -0.00038218  -0.00025990  -0.00065108
  1:   0.00436172   0.00410064   0.00179357
  2:   0.00312955  -0.00198570   0.00334578
  3:  -0.00281775   0.00319924   0.00252819
  4:   0.00285836   0.00282181  -0.00294300
  5:  -0.00405761  -0.00464080   0.00348183
  6:   0.00254647  -0.00424124  -0.00296972
  7:  -0.00419762   0.00223110  -0.00361165
  8:   0.00025066  -0.00154172   0.00156716
  9:   0.00396947  -0.00005928  -0.00071636
 10:  -0.00098088   0.00390163  -0.00206487
 11:  -0.00102347   0.00007262   0.00441765
 12:  -0.00362230   0.00027972  -0.00068468
 13:   0.00038939   0.00112190  -0.00453494
 14:   0.00238578  -0.00427995   0.00222879
 15:  -0.00502301  -0.00194020  -0.00477208
 16:   0.00019839   0.00080688   0.00036038
 17:  -0.00305260   0.00371230   0.00326732
 18:   0.00323964   0.00282997  -0.00289559
 19:  -0.00275303  -0.00268642   0.00305473
 20:   0.00290364  -0.00319753  -0.00247723
 21:  -0.00331272   0.00172518  -0.00348103
 22:   0.00512261  -0.00187199   0.00557204

-----------------------------------
NORM OF THE MP2 GRADIENT:  0.024676
-----------------------------------

Entering the calculation of the dispersion correction...

Checking the input atom types...

Done


-------------------------------------------------------------------------------
                          DFT DISPERSION CORRECTION                            
                                                                               
                                DFTD3 V2.1  Rev 6                               
                          USING Becke-Johnson damping                          
-------------------------------------------------------------------------------
The B2PLYP functional is recognized
Active option DFTDOPT                   ...         4   

molecular C6(AA) [au] = 13732.397203 


            DFT-D V3
 parameters
 s6 scaling factor         :     0.6400 
 a1 scaling factor         :     0.3065 
 s8 scaling factor         :     0.9147 
 a2 scaling factor         :     5.0570 
 ad hoc parameters k1-k3   :    16.0000     1.3333    -4.0000 

 Edisp/kcal,au: -17.351089309974  -0.027650717919 
 E6   /kcal   :  -8.171795667 
 E8   /kcal   :  -9.179293643 
 % E8         :  52.903270100 

-------------------------   ----------------
Dispersion correction           -0.027650718
-------------------------   ----------------


-------------------------   --------------------
FINAL SINGLE POINT ENERGY     -3146.591373375022
-------------------------   --------------------


                            ***************************************
                            *     ORCA property calculations      *
                            ***************************************


  WARNING: The energy has been calculated at the MP2 level but the densities
           used in the property calculations are still SCF densities
           MP2 response densities have not been calculated 
           use %mp2 Density relaxed end
           or  %mp2 Density unrelaxed end

                                    ---------------------
                                    Active property flags
                                    ---------------------
   (+) Dipole Moment


------------------------------------------------------------------------------
                       ORCA ELECTRIC PROPERTIES CALCULATION
------------------------------------------------------------------------------

Dipole Moment Calculation                       ... on
Quadrupole Moment Calculation                   ... off
Polarizability Calculation                      ... off
GBWName                                         ... PbCl6NH3CH3-2_mp2_sp_3.orca.gbw
Electron density file                           ... PbCl6NH3CH3-2_mp2_sp_3.orca.scfp.tmp

-------------
DIPOLE MOMENT
-------------
                                X             Y             Z
Electronic contribution:      0.52282      -3.19183       3.47423
Nuclear contribution   :     -0.57913       3.09151      -3.33593
                        -----------------------------------------
Total Dipole Moment    :     -0.05631      -0.10032       0.13830
                        -----------------------------------------
Magnitude (a.u.)       :      0.17989
Magnitude (Debye)      :      0.45725


                         *** MP2 UNRELAXED DENSITY ***

------------------------------------------------------------------------------
                       ORCA ELECTRIC PROPERTIES CALCULATION
------------------------------------------------------------------------------

Dipole Moment Calculation                       ... on
Quadrupole Moment Calculation                   ... off
Polarizability Calculation                      ... off
GBWName                                         ... PbCl6NH3CH3-2_mp2_sp_3.orca.gbw
Electron density file                           ... PbCl6NH3CH3-2_mp2_sp_3.orca.pmp2ur

-------------
DIPOLE MOMENT
-------------
                                X             Y             Z
Electronic contribution:      0.52264      -3.19097       3.47330
Nuclear contribution   :     -0.57913       3.09151      -3.33593
                        -----------------------------------------
Total Dipole Moment    :     -0.05649      -0.09946       0.13737
                        -----------------------------------------
Magnitude (a.u.)       :      0.17875
Magnitude (Debye)      :      0.45436


                           *** MP2 RELAXED DENSITY ***

------------------------------------------------------------------------------
                       ORCA ELECTRIC PROPERTIES CALCULATION
------------------------------------------------------------------------------

Dipole Moment Calculation                       ... on
Quadrupole Moment Calculation                   ... off
Polarizability Calculation                      ... off
GBWName                                         ... PbCl6NH3CH3-2_mp2_sp_3.orca.gbw
Electron density file                           ... PbCl6NH3CH3-2_mp2_sp_3.orca.pmp2re

-------------
DIPOLE MOMENT
-------------
                                X             Y             Z
Electronic contribution:      0.52355      -3.18888       3.47022
Nuclear contribution   :     -0.57913       3.09151      -3.33593
                        -----------------------------------------
Total Dipole Moment    :     -0.05559      -0.09737       0.13428
                        -----------------------------------------
Magnitude (a.u.)       :      0.17494
Magnitude (Debye)      :      0.44465


Timings for individual modules:

Sum of individual times         ...     2152.429 sec (=  35.874 min)
GTO integral calculation        ...        1.346 sec (=   0.022 min)   0.1 %
SCF iterations                  ...      381.776 sec (=   6.363 min)  17.7 %
MP2 module                      ...     1769.307 sec (=  29.488 min)  82.2 %
                             ****ORCA TERMINATED NORMALLY****
TOTAL RUN TIME: 0 days 0 hours 35 minutes 54 seconds 148 msec
