
                                 *****************
                                 * O   R   C   A *
                                 *****************

           --- An Ab Initio, DFT and Semiempirical electronic structure package ---

                  #######################################################
                  #                        -***-                        #
                  #  Department of molecular theory and spectroscopy    #
                  #              Directorship: Frank Neese              #
                  # Max Planck Institute for Chemical Energy Conversion #
                  #                  D-45470 Muelheim/Ruhr              #
                  #                       Germany                       #
                  #                                                     #
                  #                  All rights reserved                #
                  #                        -***-                        #
                  #######################################################


                         Program Version 3.0.3 - RELEASE   -


 With contributions from (in alphabetic order):
   Ute Becker             : Parallelization
   Dmytro Bykov           : SCF Hessian
   Dmitry Ganyushin       : Spin-Orbit,Spin-Spin,Magnetic field MRCI
   Andreas Hansen         : Spin unrestricted coupled pair/coupled cluster methods
   Dimitrios Liakos       : Extrapolation schemes; parallel MDCI
   Robert Izsak           : Overlap fitted RIJCOSX, COSX-SCS-MP3
   Christian Kollmar      : KDIIS, OOCD, Brueckner-CCSD(T), CCSD density
   Simone Kossmann        : Meta GGA functionals, TD-DFT gradient, OOMP2, MP2 Hessian
   Taras Petrenko         : DFT Hessian,TD-DFT gradient, ASA and ECA modules, normal mode analysis, Resonance Raman, ABS, FL, XAS/XES, NRVS
   Christoph Reimann      : Effective Core Potentials
   Michael Roemelt        : Restricted open shell CIS
   Christoph Riplinger    : Improved optimizer, TS searches, QM/MM, DLPNO-CCSD
   Barbara Sandhoefer     : DKH picture change effects
   Igor Schapiro          : Molecular dynamics
   Kantharuban Sivalingam : CASSCF convergence, NEVPT2
   Boris Wezisla          : Elementary symmetry handling
   Frank Wennmohs         : Technical directorship


 We gratefully acknowledge several colleagues who have allowed us to
 interface, adapt or use parts of their codes:
   Stefan Grimme, W. Hujo, H. Kruse, T. Risthaus : VdW corrections, initial TS optimization,
                                                   DFT functionals, gCP
   Ed Valeev                                     : LibInt (2-el integral package), F12 methods
   Garnet Chan, S. Sharma, R. Olivares           : DMRG
   Ulf Ekstrom                                   : XCFun DFT Library
   Mihaly Kallay                                 : mrcc  (arbitrary order and MRCC methods)
   Andreas Klamt, Michael Diedenhofen            : otool_cosmo (COSMO solvation model)
   Frank Weinhold                                : gennbo (NPA and NBO analysis)
   Christopher J. Cramer and Donald G. Truhlar   : smd solvation model


 Your calculation uses the libint2 library for the computation of 2-el integrals
 For citations please refer to: http://libint.valeyev.net

 This ORCA versions uses:
   CBLAS   interface :  Fast vector & matrix operations
   LAPACKE interface :  Fast linear algebra routines
   SCALAPACK package :  Parallel linear algebra routines


Your calculation utilizes the basis: Ahlrichs-TZV
Cite in your paper:
H - Kr: A. Schaefer, H. Horn and R. Ahlrichs, J. Chem. Phys. 97, 2571 (1992).

The def2-TZV basis will be loaded
Cite in your paper:
 	F. Weigend, R. Ahlrichs, Phys. Chem. Chem. Phys. 2005, 7, 3297.

Your calculation utilizes the atom-pairwise dispersion correction
with the Becke-Johnson damping scheme (D3BJ)
Cite in your paper:
S.Grimme, S.Ehrlich, L.Goerigk, J Comput Chem, (2011), 32, 1456–1465 
S.Grimme, J.Antony, S.Ehrlich and H.Krieg, J.Chem.Phys., 132, (2010), 154104 
   

================================================================================
                                        WARNINGS
                       Please study these warnings very carefully!
================================================================================

WARNING: The RI method has been chosen with no auxiliary basis (AUX or GTOAUX in BASIS block)
        Standard TZV/J expansion basis used (GTOAUX=TZV_J)

Now building the actual basis set
cite the ECPs for Pb [SD(60,MDF)] as follows:
  B. Metz, H. Stoll, M. Dolg, J. Chem. Phys. 113, 2563 (2000).

ECP parameters for Pb [SD(60,MDF)] have been obtained from:
  pseudopotential library of the Stuttgart/Cologne group
  http://www.theochem.uni-stuttgart.de/pseudopotentials/

cite the ECP basis sets for Pb [DEF2-TZVP] as follows:
  F. Weigend, R. Ahlrichs; Phys. Chem. Chem. Phys. 7, 3297(2005).

ECP basis sets for Pb [DEF2-TZVP] have been obtained from:
  Turbomole basis set library
  ftp://ftp.chemie.uni-karlsruhe.de/pub/basen/



INFO   : the flag for use of LIBINT has been found!

================================================================================
                                       INPUT FILE
================================================================================
NAME = PbCl6NH3CH3-2_mp2_sp_7.orca
|  1> ! RIJCOSX RI-B2PLYP D3BJ def2-TZVP ECP{def2-TZVP} TIGHTSCF Grid5 FinalGrid6 MORead
|  2> %method
|  3>  RunTyp Gradient
|  4>  end
|  5> %maxcore 1000
|  6> %moinp "previous.gbw"
|  7> *xyz -2 1
|  8> C 2.821971 3.493173 2.716929 
|  9> N 2.031893 2.485380 2.005967 
| 10> H 3.493737 3.003675 3.431461 
| 11> H 2.156449 4.174155 3.259759 
| 12> H 3.419280 4.070497 2.001994 
| 13> H 1.424368 1.881241 2.639320 
| 14> H 2.617127 1.787701 1.451958 
| 15> H 1.353302 2.890520 1.291746 
| 16> Pb 0.114131 -0.071353 0.162994 
| 17> Cl 3.218142 0.300438 0.289294 
| 18> Cl -0.011881 3.079963 -0.072477 
| 19> Cl 0.144620 0.416152 3.216522 
| 20> Cl -2.971130 -0.238527 0.213372 
| 21> Cl 0.086724 -0.469784 -2.789044 
| 22> Cl 0.188673 -3.159916 0.498766 
| 23> N -1.884966 -2.527607 -1.578982 
| 24> C -2.664881 -3.549172 -2.281400 
| 25> H -2.474954 -1.829497 -1.031708 
| 26> H -1.279571 -1.925402 -2.215561 
| 27> H -3.259633 -4.123288 -1.561779 
| 28> H -1.991792 -4.230944 -2.813775 
| 29> H -3.338231 -3.073756 -3.003955 
| 30> H -1.204879 -2.923566 -0.859634 
| 31> *
| 32> 
| 33>                          ****END OF INPUT****
================================================================================

                     *******************************
                     * Energy+Gradient Calculation *
                     *******************************

---------------------------------
CARTESIAN COORDINATES (ANGSTROEM)
---------------------------------
  C      2.821971    3.493173    2.716929
  N      2.031893    2.485380    2.005967
  H      3.493737    3.003675    3.431461
  H      2.156449    4.174155    3.259759
  H      3.419280    4.070497    2.001994
  H      1.424368    1.881241    2.639320
  H      2.617127    1.787701    1.451958
  H      1.353302    2.890520    1.291746
  Pb     0.114131   -0.071353    0.162994
  Cl     3.218142    0.300438    0.289294
  Cl    -0.011881    3.079963   -0.072477
  Cl     0.144620    0.416152    3.216522
  Cl    -2.971130   -0.238527    0.213372
  Cl     0.086724   -0.469784   -2.789044
  Cl     0.188673   -3.159916    0.498766
  N     -1.884966   -2.527607   -1.578982
  C     -2.664881   -3.549172   -2.281400
  H     -2.474954   -1.829497   -1.031708
  H     -1.279571   -1.925402   -2.215561
  H     -3.259633   -4.123288   -1.561779
  H     -1.991792   -4.230944   -2.813775
  H     -3.338231   -3.073756   -3.003955
  H     -1.204879   -2.923566   -0.859634

----------------------------
CARTESIAN COORDINATES (A.U.)
----------------------------
  NO LB      ZA    FRAG    MASS        X           Y           Z
   0 C     6.0000    0    12.011          5.332752347867888          6.601140308408101          5.134251735308532
   1 N     7.0000    0    14.007          3.839721303431654          4.696687538725200          3.790728263683611
   2 H     1.0000    0     1.008          6.602206113947632          5.676123145305915          6.484521529231552
   3 H     1.0000    0     1.008          4.075098031768349          7.888009790538062          6.160051772585005
   4 H     1.0000    0     1.008          6.461502775194258          7.692124558948052          3.783220381753542
   5 H     1.0000    0     1.008          2.691665433921146          3.555030281904149          4.987591979781038
   6 H     1.0000    0     1.008          4.945653287690924          3.378265299337155          2.743802977956033
   7 H     1.0000    0     1.008          2.557370156487898          5.462291184622056          2.441046174588241
   8 Pb   22.0000*   0   207.200  0.215676333390566  -0.134837628833683  0.308014021472361
   9 Cl   17.0000    0    35.453          6.081407040069604          0.567745540223033          0.546686432186615
  10 Cl   17.0000    0    35.453         -0.022451836197118          5.820286572610500         -0.136961681008211
  11 Cl   17.0000    0    35.453          0.273292193487691          0.786413310083597          6.078345683732652
  12 Cl   17.0000    0    35.453         -5.614622008277449         -0.450750705545834          0.403214644647045
  13 Cl   17.0000    0    35.453          0.163884609238187         -0.887763102098061         -5.270529335456263
  14 Cl   17.0000    0    35.453          0.356540298865324         -5.971375846195905          0.942531144911367
  15 N     7.0000    0    14.007         -3.562069511753006         -4.776485004182294         -2.983843550391246
  16 C     6.0000    0    12.011         -5.035895269490199         -6.706963082181557         -4.311221201927943
  17 H     1.0000    0     1.008         -4.676985254052937         -3.457248292830528         -1.949645570175627
  18 H     1.0000    0     1.008         -2.418038758907750         -3.638482477704246         -4.186803522996702
  19 H     1.0000    0     1.008         -6.159813667092132         -7.791885091283890         -2.951334591709398
  20 H     1.0000    0     1.008         -3.763941395735278         -7.995325447957316         -5.317264152474270
  21 H     1.0000    0     1.008         -6.308342361766074         -5.808557042497251         -5.676652268623413
  22 H     1.0000    0     1.008         -2.276891334512904         -5.524739074443619         -1.624472835407261
* core charge reduced due to ECP

--------------------------------
INTERNAL COORDINATES (ANGSTROEM)
--------------------------------
 C      0   0   0   0.000000     0.000     0.000
 N      1   0   0   1.464697     0.000     0.000
 H      1   2   0   1.096099   109.861     0.000
 H      1   2   3   1.096048   109.899   239.985
 H      1   2   3   1.095999   109.864   119.972
 H      2   1   3   1.065461   114.153    59.908
 H      2   1   3   1.065918   113.984   299.878
 H      2   1   3   1.065240   114.041   179.989
 Pb     7   2   1   3.373796    98.737   180.475
 Cl     7   2   1   1.981151   164.354   181.456
 Cl     8   2   1   1.939257   163.191   181.558
 Cl     6   2   1   2.029138   159.737   184.430
 Cl     9   7   2   3.090197   139.844   359.210
 Cl     9   7   2   2.978930   117.331   126.949
 Cl     9   7   2   3.107655   119.246   231.801
 N     15   9   7   3.002804    72.506   193.981
 C     16  15   9   1.464668   123.551   179.054
 H     16  15   9   1.065341    99.496   306.494
 H     16  15   9   1.065076    98.053    52.814
 H     17  16  15   1.095990   109.842    61.214
 H     17  16  15   1.096031   109.864   301.263
 H     17  16  15   1.096132   109.921   181.225
 H     16  15   9   1.066191     9.758   184.956

---------------------------
INTERNAL COORDINATES (A.U.)
---------------------------
 C      0   0   0   0.000000     0.000     0.000
 N      1   0   0   2.767876     0.000     0.000
 H      1   2   0   2.071328   109.861     0.000
 H      1   2   3   2.071230   109.899   239.985
 H      1   2   3   2.071137   109.864   119.972
 H      2   1   3   2.013429   114.153    59.908
 H      2   1   3   2.014293   113.984   299.878
 H      2   1   3   2.013011   114.041   179.989
 Pb     7   2   1   6.375550    98.737   180.475
 Cl     7   2   1   3.743832   164.354   181.456
 Cl     8   2   1   3.664665   163.191   181.558
 Cl     6   2   1   3.834516   159.737   184.430
 Cl     9   7   2   5.839627   139.844   359.210
 Cl     9   7   2   5.629363   117.331   126.949
 Cl     9   7   2   5.872617   119.246   231.801
 N     15   9   7   5.674477    72.506   193.981
 C     16  15   9   2.767822   123.551   179.054
 H     16  15   9   2.013203    99.496   306.494
 H     16  15   9   2.012702    98.053    52.814
 H     17  16  15   2.071120   109.842    61.214
 H     17  16  15   2.071199   109.864   301.263
 H     17  16  15   2.071390   109.921   181.225
 H     16  15   9   2.014809     9.758   184.956

---------------------
BASIS SET INFORMATION
---------------------
There are 5 groups of distinct atoms

 Group   1 Type C   : 11s6p2d1f contracted to 5s3p2d1f pattern {62111/411/11/1}
 Group   2 Type N   : 11s6p2d1f contracted to 5s3p2d1f pattern {62111/411/11/1}
 Group   3 Type H   : 5s1p contracted to 3s1p pattern {311/1}
 Group   4 Type Pb  : 10s9p8d2f contracted to 6s5p3d2f pattern {421111/33111/611/11}
 Group   5 Type Cl  : 14s9p3d1f contracted to 5s5p2d1f pattern {73211/51111/21/1}

Atom   0C    basis set group =>   1
Atom   1N    basis set group =>   2
Atom   2H    basis set group =>   3
Atom   3H    basis set group =>   3
Atom   4H    basis set group =>   3
Atom   5H    basis set group =>   3
Atom   6H    basis set group =>   3
Atom   7H    basis set group =>   3
Atom   8Pb   basis set group =>   4
Atom   9Cl   basis set group =>   5
Atom  10Cl   basis set group =>   5
Atom  11Cl   basis set group =>   5
Atom  12Cl   basis set group =>   5
Atom  13Cl   basis set group =>   5
Atom  14Cl   basis set group =>   5
Atom  15N    basis set group =>   2
Atom  16C    basis set group =>   1
Atom  17H    basis set group =>   3
Atom  18H    basis set group =>   3
Atom  19H    basis set group =>   3
Atom  20H    basis set group =>   3
Atom  21H    basis set group =>   3
Atom  22H    basis set group =>   3
-------------------------------
AUXILIARY BASIS SET INFORMATION
-------------------------------
There are 5 groups of distinct atoms

 Group   1 Type C   : 12s5p4d2f1g contracted to 6s4p3d1f1g pattern {711111/2111/211/2/1}
 Group   2 Type N   : 12s5p4d2f1g contracted to 6s4p3d1f1g pattern {711111/2111/211/2/1}
 Group   3 Type H   : 5s2p1d contracted to 3s1p1d pattern {311/2/1}
 Group   4 Type Pb  : 31s12p8d6f3g contracted to 31s12p8d6f3g pattern {1111111111111111111111111111111/111111111111/11111111/111111/111}
 Group   5 Type Cl  : 14s5p5d2f1g contracted to 8s4p3d1f1g pattern {71111111/2111/311/2/1}

Atom   0C    basis set group =>   1
Atom   1N    basis set group =>   2
Atom   2H    basis set group =>   3
Atom   3H    basis set group =>   3
Atom   4H    basis set group =>   3
Atom   5H    basis set group =>   3
Atom   6H    basis set group =>   3
Atom   7H    basis set group =>   3
Atom   8Pb   basis set group =>   4
Atom   9Cl   basis set group =>   5
Atom  10Cl   basis set group =>   5
Atom  11Cl   basis set group =>   5
Atom  12Cl   basis set group =>   5
Atom  13Cl   basis set group =>   5
Atom  14Cl   basis set group =>   5
Atom  15N    basis set group =>   2
Atom  16C    basis set group =>   1
Atom  17H    basis set group =>   3
Atom  18H    basis set group =>   3
Atom  19H    basis set group =>   3
Atom  20H    basis set group =>   3
Atom  21H    basis set group =>   3
Atom  22H    basis set group =>   3

-------------------------
ECP PARAMETER INFORMATION
-------------------------

 Group 1, Type Pb ECP SD(60,MDF) (replacing 60 core electrons, lmax=5)

Atom   8Pb   ECP group =>   1


------------------------------------------------------------------------------
                           ORCA GTO INTEGRAL CALCULATION
                           -- RI-GTO INTEGRALS CHOSEN --
------------------------------------------------------------------------------

                         BASIS SET STATISTICS AND STARTUP INFO

Gaussian basis set:
 # of primitive gaussian shells          ...  343
 # of primitive gaussian functions       ...  749
 # of contracted shells                  ...  186
 # of contracted basis functions         ...  468
 Highest angular momentum                ...    3
 Maximum contraction depth               ...    7
Auxiliary gaussian basis set:
 # of primitive gaussian shells          ...  414
 # of primitive gaussian functions       ... 1110
 # of contracted shells                  ...  282
 # of contracted aux-basis functions     ...  810
 Highest angular momentum                ...    4
 Maximum contraction depth               ...    7
Ratio of auxiliary to basis functions    ...  1.73
Integral package used                  ... LIBINT
 One Electron integrals                  
   ECP integrals                         ... done
 Ordering auxiliary basis shells         ... done
 Integral threshhold             Thresh  ...  2.500e-11
 Primitive cut-off               TCut    ...  2.500e-12
 Pre-screening matrix                    ... done
 Shell pair data                         ... 
 Ordering of the shell pairs             ... done (   0.002 sec) 11341 of 17391 pairs
 Determination of significant pairs      ... done (   0.000 sec)
 Creation of shell pair data             ... done (   0.005 sec)
 Storage of shell pair data              ... done (   0.004 sec)
 Shell pair data done in (   0.011 sec)
 Computing two index integrals           ... done
 Cholesky decomposition of the V-matrix  ... done


Timings:
 Total evaluation time                   ...   1.804 sec (  0.030 min)
 One electron matrix time                ...   0.918 sec (  0.015 min) = 50.9%
 Schwartz matrix evaluation time         ...   0.713 sec (  0.012 min) = 39.5%
 Two index repulsion integral time       ...   0.032 sec (  0.001 min) =  1.8%
 Cholesky decomposition of V             ...   0.090 sec (  0.002 min) =  5.0%
 Three index repulsion integral time     ...   0.000 sec (  0.000 min) =  0.0%

-------------------------------------------------------------------------------
                                 ORCA SCF
-------------------------------------------------------------------------------

------------
SCF SETTINGS
------------
Hamiltonian:
 Density Functional     Method          .... DFT(GTOs)
 Exchange Functional    Exchange        .... B88
   X-Alpha parameter    XAlpha          ....  0.666667
   Becke's b parameter  XBeta           ....  0.004200
 Correlation Functional Correlation     .... LYP
 LDA part of GGA corr.  LDAOpt          .... VWN-3
 Gradients option       PostSCFGGA      .... off
 Hybrid DFT is turned on
   Fraction HF Exchange ScalHFX         ....  0.530000
   Scaling of DF-GGA-X  ScalDFX         ....  0.470000
   Scaling of DF-GGA-C  ScalDFC         ....  0.730000
   Scaling of DF-LDA-C  ScalLDAC        ....  0.730000
   Perturbative correction              ....  0.270000
 RI-approximation to the Coulomb term is turned on
   Number of auxiliary basis functions  .... 810
   RIJ-COSX (HFX calculated with COS-X)).... on


General Settings:
 Integral files         IntName         .... PbCl6NH3CH3-2_mp2_sp_7.orca
 Hartree-Fock type      HFTyp           .... RHF
 Total Charge           Charge          ....   -2
 Multiplicity           Mult            ....    1
 Number of Electrons    NEL             ....  164
 Basis Dimension        Dim             ....  468
 Nuclear Repulsion      ENuc            ....   1555.6917057965 Eh

Convergence Acceleration:
 DIIS                   CNVDIIS         .... on
   Start iteration      DIISMaxIt       ....    12
   Startup error        DIISStart       ....  0.200000
   # of expansion vecs  DIISMaxEq       ....     5
   Bias factor          DIISBfac        ....   1.050
   Max. coefficient     DIISMaxC        ....  10.000
 Newton-Raphson         CNVNR           .... off
 SOSCF                  CNVSOSCF        .... on
   Start iteration      SOSCFMaxIt      ....   150
   Startup grad/error   SOSCFStart      ....  0.003300
 Level Shifting         CNVShift        .... on
   Level shift para.    LevelShift      ....    0.2500
   Turn off err/grad.   ShiftErr        ....    0.0010
 Zerner damping         CNVZerner       .... off
 Static damping         CNVDamp         .... on
   Fraction old density DampFac         ....    0.7000
   Max. Damping (<1)    DampMax         ....    0.9800
   Min. Damping (>=0)   DampMin         ....    0.0000
   Turn off err/grad.   DampErr         ....    0.1000
 Fernandez-Rico         CNVRico         .... off

SCF Procedure:
 Maximum # iterations   MaxIter         ....   125
 SCF integral mode      SCFMode         .... Direct
   Integral package                     .... LIBINT
 Reset frequeny         DirectResetFreq ....    20
 Integral Threshold     Thresh          ....  2.500e-11 Eh
 Primitive CutOff       TCut            ....  2.500e-12 Eh

Convergence Tolerance:
 Convergence Check Mode ConvCheckMode   .... Total+1el-Energy
 Energy Change          TolE            ....  1.000e-08 Eh
 1-El. energy change                    ....  1.000e-05 Eh
 Orbital Gradient       TolG            ....  1.000e-05
 Orbital Rotation angle TolX            ....  1.000e-05
 DIIS Error             TolErr          ....  5.000e-07


Diagonalization of the overlap matrix:
Smallest eigenvalue                        ... 1.085e-03
Time for diagonalization                   ...    0.171 sec
Threshold for overlap eigenvalues          ... 1.000e-08
Number of eigenvalues below threshold      ... 0
Time for construction of square roots      ...    0.050 sec
Total time needed                          ...    0.223 sec

---------------------
INITIAL GUESS: MOREAD
---------------------
Guess MOs are being read from file: previous.gbw
Input geometry compatible with but different from current geometry
Input basis set matches current basis set (good)
MOs were renormalized
MOs were reorthogonalized (Schmidt)
                      ------------------
                      INITIAL GUESS DONE (   2.0 sec)
                      ------------------
-------------------
DFT GRID GENERATION
-------------------

General Integration Accuracy     IntAcc      ...  5.010
Radial Grid Type                 RadialGrid  ... Gauss-Chebyshev
Angular Grid (max. acc.)         AngularGrid ... Lebedev-434
Angular grid pruning method      GridPruning ... 3 (G Style)
Weight generation scheme         WeightScheme... Becke
Basis function cutoff            BFCut       ...    1.0000e-11
Integration weight cutoff        WCut        ...    1.0000e-14
Grids for H and He will be reduced by one unit

# of grid points (after initial pruning)     ... 212974 (   0.2 sec)
# of grid points (after weights+screening)   ... 196041 (   2.1 sec)
nearest neighbour list constructed           ...    0.0 sec
Grid point re-assignment to atoms done       ...    0.1 sec
Grid point division into batches done        ...    1.8 sec
Reduced shell lists constructed in    7.7 sec

Total number of grid points                  ...   196041
Total number of batches                      ...     3075
Average number of points per batch           ...       63
Average number of grid points per atom       ...     8524
Average number of shells per batch           ...    68.16 (36.64%)
Average number of basis functions per batch  ...   172.60 (36.88%)
Average number of large shells per batch     ...    46.06 (67.58%)
Average number of large basis fcns per batch ...   115.40 (66.86%)
Maximum spatial batch extension              ...  30.33, 28.99, 30.33 au
Average spatial batch extension              ...   2.10,  2.08,  2.09 au

Time for grid setup =   10.117 sec

--------------------
COSX GRID GENERATION
--------------------

General Integration Accuracy     IntAcc      ...  3.340
Radial Grid Type                 RadialGrid  ... Gauss-Chebyshev
Angular Grid (max. acc.)         AngularGrid ... Lebedev-50
Angular grid pruning method      GridPruning ... 3 (G Style)
Weight generation scheme         WeightScheme... Becke
Basis function cutoff            BFCut       ...    1.0000e-11
Integration weight cutoff        WCut        ...    1.0000e-14
Grids for H and He will be reduced by one unit

# of grid points (after initial pruning)     ...  11762 (   0.0 sec)
# of grid points (after weights+screening)   ...  10908 (   0.1 sec)
nearest neighbour list constructed           ...    0.0 sec
Grid point re-assignment to atoms done       ...    0.0 sec
Grid point division into batches done        ...    0.0 sec
Reduced shell lists constructed in    0.4 sec

Total number of grid points                  ...    10908
Total number of batches                      ...      183
Average number of points per batch           ...       59
Average number of grid points per atom       ...      474
Average number of shells per batch           ...    87.12 (46.84%)
Average number of basis functions per batch  ...   225.79 (48.25%)
Average number of large shells per batch     ...    59.58 (68.38%)
Average number of large basis fcns per batch ...   151.58 (67.13%)
Maximum spatial batch extension              ...  26.56, 20.96, 22.89 au
Average spatial batch extension              ...   5.35,  5.09,  5.27 au

Overlap Fitting                  UseSFitting ... on
Constructing numerical overlap ... done (      0.3 sec)
Inverting numerical overlap    ... done (      0.0 sec)
Obtaining analytic overlap     ... done (      0.0 sec)
Final contraction and storage  ... done (      0.0 sec)


General Integration Accuracy     IntAcc      ...  3.670
Radial Grid Type                 RadialGrid  ... Gauss-Chebyshev
Angular Grid (max. acc.)         AngularGrid ... Lebedev-50
Angular grid pruning method      GridPruning ... 3 (G Style)
Weight generation scheme         WeightScheme... Becke
Basis function cutoff            BFCut       ...    1.0000e-11
Integration weight cutoff        WCut        ...    1.0000e-14
Grids for H and He will be reduced by one unit

# of grid points (after initial pruning)     ...  14690 (   0.0 sec)
# of grid points (after weights+screening)   ...  13603 (   0.1 sec)
nearest neighbour list constructed           ...    0.0 sec
Grid point re-assignment to atoms done       ...    0.0 sec
Grid point division into batches done        ...    0.0 sec
Reduced shell lists constructed in    0.5 sec

Total number of grid points                  ...    13603
Total number of batches                      ...      222
Average number of points per batch           ...       61
Average number of grid points per atom       ...      591
Average number of shells per batch           ...    84.72 (45.55%)
Average number of basis functions per batch  ...   219.06 (46.81%)
Average number of large shells per batch     ...    57.57 (67.95%)
Average number of large basis fcns per batch ...   145.55 (66.44%)
Maximum spatial batch extension              ...  26.87, 20.63, 23.70 au
Average spatial batch extension              ...   4.96,  4.78,  4.94 au

Overlap Fitting                  UseSFitting ... on
Constructing numerical overlap ... done (      0.3 sec)
Inverting numerical overlap    ... done (      0.0 sec)
Obtaining analytic overlap     ... done (      0.0 sec)
Final contraction and storage  ... done (      0.0 sec)


General Integration Accuracy     IntAcc      ...  4.010
Radial Grid Type                 RadialGrid  ... Gauss-Chebyshev
Angular Grid (max. acc.)         AngularGrid ... Lebedev-110
Angular grid pruning method      GridPruning ... 3 (G Style)
Weight generation scheme         WeightScheme... Becke
Basis function cutoff            BFCut       ...    1.0000e-11
Integration weight cutoff        WCut        ...    1.0000e-14
Grids for H and He will be reduced by one unit

# of grid points (after initial pruning)     ...  27082 (   0.0 sec)
# of grid points (after weights+screening)   ...  25300 (   0.3 sec)
nearest neighbour list constructed           ...    0.0 sec
Grid point re-assignment to atoms done       ...    0.0 sec
Grid point division into batches done        ...    0.0 sec
Reduced shell lists constructed in    0.9 sec

Total number of grid points                  ...    25300
Total number of batches                      ...      407
Average number of points per batch           ...       62
Average number of grid points per atom       ...     1100
Average number of shells per batch           ...    80.15 (43.09%)
Average number of basis functions per batch  ...   205.98 (44.01%)
Average number of large shells per batch     ...    54.49 (67.99%)
Average number of large basis fcns per batch ...   138.14 (67.06%)
Maximum spatial batch extension              ...  28.58, 26.26, 26.44 au
Average spatial batch extension              ...   4.27,  4.11,  4.09 au

Overlap Fitting                  UseSFitting ... on
Constructing numerical overlap ... done (      0.6 sec)
Inverting numerical overlap    ... done (      0.0 sec)
Obtaining analytic overlap     ... done (      0.0 sec)
Final contraction and storage  ... done (      0.0 sec)

Time for X-Grid setup             =    3.835 sec
--------------
SCF ITERATIONS
--------------
ITER       Energy         Delta-E        Max-DP      RMS-DP      [F,P]     Damp
               ***  Starting incremental Fock matrix formation  ***
  0  -3145.5396958207   0.000000000000 0.00229290  0.00004082  0.0656293 0.7000
                      *** Initiating the SOSCF procedure ***
                      *** Re-Reading the Fockian *** 
                      *** Removing any level shift *** 
ITER      Energy       Delta-E        Grad      Rot      Max-DP    RMS-DP
  1  -3145.54008714  -0.0003913202  0.000861  0.000861  0.007620  0.000133
               *** Restarting incremental Fock matrix formation ***
  2  -3145.54116314  -0.0010759953  0.000854  0.001894  0.003014  0.000055
  3  -3145.54124809  -0.0000849542  0.000694  0.001034  0.001775  0.000028
  4  -3145.54127457  -0.0000264777  0.000145  0.000220  0.000395  0.000008
  5  -3145.54127639  -0.0000018219  0.000023  0.000040  0.000135  0.000001
  6  -3145.54127649  -0.0000000962  0.000014  0.000035  0.000050  0.000001
  7  -3145.54127648   0.0000000080  0.000006  0.000009  0.000020  0.000000
  8  -3145.54127648   0.0000000005  0.000003  0.000002  0.000008  0.000000
                  ***Gradient check signals convergence***
              ***Rediagonalizing the Fockian in SOSCF/NRSCF***

               *****************************************************
               *                     SUCCESS                       *
               *           SCF CONVERGED AFTER   9 CYCLES          *
               *****************************************************

Old exchange energy                            =   -110.582207820 Eh
New exchange energy                            =   -110.590552119 Eh
Exchange energy change after final integration =     -0.008344299 Eh
Total energy after final integration           =  -3145.549620777 Eh
Final COS-X integration done in                =   100.652 sec

----------------
TOTAL SCF ENERGY
----------------

Total Energy       :        -3145.54962078 Eh          -85594.75673 eV

Components:
Nuclear Repulsion  :         1555.69170580 Eh           42332.52346 eV
Electronic Energy  :        -4701.24132657 Eh         -127927.28019 eV

One Electron Energy:        -7560.06468741 Eh         -205719.81874 eV
Two Electron Energy:         2858.82336083 Eh           77792.53854 eV

Virial components:
Potential Energy   :        -6157.88725131 Eh         -167564.63093 eV
Kinetic Energy     :         3012.33763054 Eh           81969.87419 eV
Virial Ratio       :            2.04422213


DFT components:
N(Alpha)           :       81.999987421644 electrons
N(Beta)            :       81.999987421644 electrons
N(Total)           :      163.999974843289 electrons
E(X)               :      -98.135999609501 Eh       
E(C)               :       -4.634482847239 Eh       
E(XC)              :     -102.770482456740 Eh       

---------------
SCF CONVERGENCE
---------------

  Last Energy change         ...   -4.8385e-10  Tolerance :   1.0000e-08
  Last MAX-Density change    ...    4.8739e-14  Tolerance :   1.0000e-07
  Last RMS-Density change    ...    5.4580e-16  Tolerance :   5.0000e-09
  Last Orbital Gradient      ...    2.1378e-07  Tolerance :   1.0000e-05
  Last Orbital Rotation      ...    7.4633e-07  Tolerance :   1.0000e-05

             **** THE GBW FILE WAS UPDATED (PbCl6NH3CH3-2_mp2_sp_7.orca.gbw) ****
             **** DENSITY FILE WAS UPDATED (PbCl6NH3CH3-2_mp2_sp_7.orca.scfp.tmp) ****
             **** ENERGY FILE WAS UPDATED (PbCl6NH3CH3-2_mp2_sp_7.orca.en.tmp) ****
----------------
ORBITAL ENERGIES
----------------

  NO   OCC          E(Eh)            E(eV) 
   0   2.0000    -102.588393     -2791.5721 
   1   2.0000    -102.586059     -2791.5086 
   2   2.0000    -102.580623     -2791.3607 
   3   2.0000    -102.578984     -2791.3161 
   4   2.0000    -102.577306     -2791.2704 
   5   2.0000    -102.575239     -2791.2142 
   6   2.0000     -14.704118      -400.1194 
   7   2.0000     -14.685215      -399.6050 
   8   2.0000     -10.498114      -285.6682 
   9   2.0000     -10.486530      -285.3530 
  10   2.0000      -9.594921      -261.0911 
  11   2.0000      -9.592702      -261.0307 
  12   2.0000      -9.586877      -260.8722 
  13   2.0000      -9.585573      -260.8367 
  14   2.0000      -9.584007      -260.7941 
  15   2.0000      -9.581744      -260.7325 
  16   2.0000      -7.231379      -196.7758 
  17   2.0000      -7.231049      -196.7668 
  18   2.0000      -7.230401      -196.7492 
  19   2.0000      -7.229056      -196.7126 
  20   2.0000      -7.228953      -196.7098 
  21   2.0000      -7.228166      -196.6884 
  22   2.0000      -7.223318      -196.5565 
  23   2.0000      -7.223067      -196.5496 
  24   2.0000      -7.222391      -196.5312 
  25   2.0000      -7.221958      -196.5195 
  26   2.0000      -7.221784      -196.5147 
  27   2.0000      -7.221076      -196.4955 
  28   2.0000      -7.220382      -196.4766 
  29   2.0000      -7.220230      -196.4724 
  30   2.0000      -7.219486      -196.4522 
  31   2.0000      -7.218166      -196.4163 
  32   2.0000      -7.217919      -196.4096 
  33   2.0000      -7.217260      -196.3916 
  34   2.0000      -5.564020      -151.4047 
  35   2.0000      -3.334750       -90.7432 
  36   2.0000      -3.334075       -90.7248 
  37   2.0000      -3.333552       -90.7106 
  38   2.0000      -0.889655       -24.2087 
  39   2.0000      -0.874318       -23.7914 
  40   2.0000      -0.722959       -19.6727 
  41   2.0000      -0.722484       -19.6598 
  42   2.0000      -0.721825       -19.6419 
  43   2.0000      -0.720434       -19.6040 
  44   2.0000      -0.719996       -19.5921 
  45   2.0000      -0.640360       -17.4251 
  46   2.0000      -0.629217       -17.1219 
  47   2.0000      -0.604948       -16.4615 
  48   2.0000      -0.602922       -16.4063 
  49   2.0000      -0.597115       -16.2483 
  50   2.0000      -0.595315       -16.1993 
  51   2.0000      -0.594017       -16.1640 
  52   2.0000      -0.589477       -16.0405 
  53   2.0000      -0.419843       -11.4245 
  54   2.0000      -0.419210       -11.4073 
  55   2.0000      -0.405422       -11.0321 
  56   2.0000      -0.405304       -11.0289 
  57   2.0000      -0.371651       -10.1131 
  58   2.0000      -0.357693        -9.7333 
  59   2.0000      -0.297953        -8.1077 
  60   2.0000      -0.297510        -8.0956 
  61   2.0000      -0.291684        -7.9371 
  62   2.0000      -0.286016        -7.7829 
  63   2.0000      -0.285744        -7.7755 
  64   2.0000      -0.114897        -3.1265 
  65   2.0000      -0.110487        -3.0065 
  66   2.0000      -0.107764        -2.9324 
  67   2.0000      -0.097742        -2.6597 
  68   2.0000      -0.088984        -2.4214 
  69   2.0000      -0.088602        -2.4110 
  70   2.0000      -0.087524        -2.3816 
  71   2.0000      -0.083898        -2.2830 
  72   2.0000      -0.082792        -2.2529 
  73   2.0000      -0.081760        -2.2248 
  74   2.0000      -0.079702        -2.1688 
  75   2.0000      -0.077753        -2.1158 
  76   2.0000      -0.077643        -2.1128 
  77   2.0000      -0.075472        -2.0537 
  78   2.0000      -0.074759        -2.0343 
  79   2.0000      -0.074240        -2.0202 
  80   2.0000      -0.068382        -1.8608 
  81   2.0000      -0.044999        -1.2245 
  82   0.0000       0.235969         6.4210 
  83   0.0000       0.244712         6.6589 
  84   0.0000       0.252642         6.8747 
  85   0.0000       0.256663         6.9842 
  86   0.0000       0.265077         7.2131 
  87   0.0000       0.300213         8.1692 
  88   0.0000       0.302108         8.2208 
  89   0.0000       0.303224         8.2511 
  90   0.0000       0.310986         8.4624 
  91   0.0000       0.311522         8.4769 
  92   0.0000       0.312605         8.5064 
  93   0.0000       0.368532        10.0283 
  94   0.0000       0.374261        10.1842 
  95   0.0000       0.381057        10.3691 
  96   0.0000       0.384464        10.4618 
  97   0.0000       0.408525        11.1165 
  98   0.0000       0.413240        11.2448 
  99   0.0000       0.414910        11.2903 
 100   0.0000       0.417547        11.3620 
 101   0.0000       0.442249        12.0342 
 102   0.0000       0.456389        12.4190 
 103   0.0000       0.485477        13.2105 
 104   0.0000       0.489982        13.3331 
 105   0.0000       0.492000        13.3880 
 106   0.0000       0.493030        13.4160 
 107   0.0000       0.504900        13.7390 
 108   0.0000       0.507722        13.8158 
 109   0.0000       0.517446        14.0804 
 110   0.0000       0.524635        14.2760 
 111   0.0000       0.526278        14.3207 
 112   0.0000       0.542319        14.7573 
 113   0.0000       0.549335        14.9482 
 114   0.0000       0.551519        15.0076 
 115   0.0000       0.587605        15.9895 
 116   0.0000       0.589123        16.0309 
 117   0.0000       0.591116        16.0851 
 118   0.0000       0.602882        16.4052 
 119   0.0000       0.616686        16.7809 
 120   0.0000       0.635459        17.2917 
 121   0.0000       0.639107        17.3910 
 122   0.0000       0.639892        17.4123 
 123   0.0000       0.661936        18.0122 
 124   0.0000       0.664185        18.0734 
 125   0.0000       0.668273        18.1846 
 126   0.0000       0.676993        18.4219 
 127   0.0000       0.680824        18.5262 
 128   0.0000       0.682579        18.5739 
 129   0.0000       0.684644        18.6301 
 130   0.0000       0.692032        18.8312 
 131   0.0000       0.694981        18.9114 
 132   0.0000       0.700897        19.0724 
 133   0.0000       0.708820        19.2880 
 134   0.0000       0.712146        19.3785 
 135   0.0000       0.725010        19.7285 
 136   0.0000       0.728521        19.8241 
 137   0.0000       0.733187        19.9510 
 138   0.0000       0.735389        20.0109 
 139   0.0000       0.742437        20.2027 
 140   0.0000       0.744433        20.2571 
 141   0.0000       0.748187        20.3592 
 142   0.0000       0.749011        20.3816 
 143   0.0000       0.750283        20.4162 
 144   0.0000       0.761567        20.7233 
 145   0.0000       0.764126        20.7929 
 146   0.0000       0.769361        20.9354 
 147   0.0000       0.772989        21.0341 
 148   0.0000       0.776460        21.1286 
 149   0.0000       0.782487        21.2926 
 150   0.0000       0.789628        21.4869 
 151   0.0000       0.804160        21.8823 
 152   0.0000       0.807236        21.9660 
 153   0.0000       0.808042        21.9880 
 154   0.0000       0.811954        22.0944 
 155   0.0000       0.813337        22.1320 
 156   0.0000       0.814867        22.1737 
 157   0.0000       0.816578        22.2202 
 158   0.0000       0.821334        22.3496 
 159   0.0000       0.823056        22.3965 
 160   0.0000       0.832418        22.6513 
 161   0.0000       0.837824        22.7984 
 162   0.0000       0.839383        22.8408 
 163   0.0000       0.841240        22.8913 
 164   0.0000       0.856597        23.3092 
 165   0.0000       0.863055        23.4849 
 166   0.0000       0.866605        23.5815 
 167   0.0000       0.892217        24.2785 
 168   0.0000       0.908838        24.7307 
 169   0.0000       0.917367        24.9628 
 170   0.0000       0.924055        25.1448 
 171   0.0000       0.929310        25.2878 
 172   0.0000       0.933232        25.3945 
 173   0.0000       0.951591        25.8941 
 174   0.0000       0.965595        26.2752 
 175   0.0000       0.966126        26.2896 
 176   0.0000       0.970171        26.3997 
 177   0.0000       0.973450        26.4889 
 178   0.0000       0.978460        26.6252 
 179   0.0000       0.985377        26.8135 
 180   0.0000       0.988201        26.8903 
 181   0.0000       1.003371        27.3031 
 182   0.0000       1.004737        27.3403 
 183   0.0000       1.019109        27.7314 
 184   0.0000       1.050179        28.5768 
 185   0.0000       1.053525        28.6679 
 186   0.0000       1.062893        28.9228 
 187   0.0000       1.067551        29.0495 
 188   0.0000       1.069194        29.0942 
 189   0.0000       1.072668        29.1888 
 190   0.0000       1.076529        29.2939 
 191   0.0000       1.080042        29.3894 
 192   0.0000       1.082250        29.4495 
 193   0.0000       1.123340        30.5676 
 194   0.0000       1.125141        30.6167 
 195   0.0000       1.141912        31.0730 
 196   0.0000       1.144334        31.1389 
 197   0.0000       1.150567        31.3085 
 198   0.0000       1.182319        32.1725 
 199   0.0000       1.196430        32.5565 
 200   0.0000       1.221064        33.2268 
 201   0.0000       1.225792        33.3555 
 202   0.0000       1.266444        34.4617 
 203   0.0000       1.312574        35.7169 
 204   0.0000       1.330559        36.2064 
 205   0.0000       1.338118        36.4120 
 206   0.0000       1.408694        38.3325 
 207   0.0000       1.414451        38.4892 
 208   0.0000       1.417237        38.5650 
 209   0.0000       1.422716        38.7141 
 210   0.0000       1.436342        39.0849 
 211   0.0000       1.439888        39.1813 
 212   0.0000       1.444610        39.3098 
 213   0.0000       1.459655        39.7192 
 214   0.0000       1.463424        39.8218 
 215   0.0000       1.525940        41.5229 
 216   0.0000       1.550361        42.1875 
 217   0.0000       1.568181        42.6724 
 218   0.0000       1.584057        43.1044 
 219   0.0000       1.656194        45.0673 
 220   0.0000       1.676500        45.6199 
 221   0.0000       1.687853        45.9288 
 222   0.0000       1.700076        46.2614 
 223   0.0000       1.703095        46.3436 
 224   0.0000       1.713357        46.6228 
 225   0.0000       1.770054        48.1656 
 226   0.0000       1.780583        48.4521 
 227   0.0000       1.811520        49.2940 
 228   0.0000       1.814615        49.3782 
 229   0.0000       1.827596        49.7314 
 230   0.0000       1.831282        49.8317 
 231   0.0000       1.843565        50.1660 
 232   0.0000       1.845397        50.2158 
 233   0.0000       1.852079        50.3976 
 234   0.0000       1.855220        50.4831 
 235   0.0000       1.971806        53.6556 
 236   0.0000       1.990653        54.1684 
 237   0.0000       2.020791        54.9885 
 238   0.0000       2.023363        55.0585 
 239   0.0000       2.030943        55.2648 
 240   0.0000       2.031672        55.2846 
 241   0.0000       2.114192        57.5301 
 242   0.0000       2.115762        57.5728 
 243   0.0000       2.125310        57.8326 
 244   0.0000       2.126337        57.8606 
 245   0.0000       2.159165        58.7539 
 246   0.0000       2.160353        58.7862 
 247   0.0000       2.169911        59.0463 
 248   0.0000       2.171039        59.0770 
 249   0.0000       2.177140        59.2430 
 250   0.0000       2.178828        59.2889 
 251   0.0000       2.180645        59.3384 
 252   0.0000       2.183977        59.4290 
 253   0.0000       2.186552        59.4991 
 254   0.0000       2.188816        59.5607 
 255   0.0000       2.207494        60.0690 
 256   0.0000       2.213375        60.2290 
 257   0.0000       2.215007        60.2734 
 258   0.0000       2.226612        60.5892 
 259   0.0000       2.228047        60.6282 
 260   0.0000       2.231216        60.7145 
 261   0.0000       2.234593        60.8064 
 262   0.0000       2.241409        60.9918 
 263   0.0000       2.246051        61.1181 
 264   0.0000       2.248776        61.1923 
 265   0.0000       2.256168        61.3935 
 266   0.0000       2.256778        61.4100 
 267   0.0000       2.267989        61.7151 
 268   0.0000       2.274694        61.8976 
 269   0.0000       2.288197        62.2650 
 270   0.0000       2.291116        62.3444 
 271   0.0000       2.298536        62.5463 
 272   0.0000       2.300495        62.5996 
 273   0.0000       2.302693        62.6595 
 274   0.0000       2.306974        62.7760 
 275   0.0000       2.356687        64.1287 
 276   0.0000       2.358464        64.1771 
 277   0.0000       2.367410        64.4205 
 278   0.0000       2.370414        64.5023 
 279   0.0000       2.372766        64.5662 
 280   0.0000       2.406236        65.4770 
 281   0.0000       2.412965        65.6601 
 282   0.0000       2.416787        65.7641 
 283   0.0000       2.422027        65.9067 
 284   0.0000       2.425386        65.9981 
 285   0.0000       2.426400        66.0257 
 286   0.0000       2.431294        66.1589 
 287   0.0000       2.448478        66.6265 
 288   0.0000       2.453963        66.7757 
 289   0.0000       2.454952        66.8026 
 290   0.0000       2.457546        66.8732 
 291   0.0000       2.459084        66.9151 
 292   0.0000       2.462594        67.0106 
 293   0.0000       2.464767        67.0697 
 294   0.0000       2.471993        67.2663 
 295   0.0000       2.488996        67.7290 
 296   0.0000       2.504248        68.1440 
 297   0.0000       2.507547        68.2338 
 298   0.0000       2.509181        68.2783 
 299   0.0000       2.511197        68.3332 
 300   0.0000       2.512629        68.3721 
 301   0.0000       2.513593        68.3983 
 302   0.0000       2.517690        68.5098 
 303   0.0000       2.517959        68.5172 
 304   0.0000       2.518213        68.5241 
 305   0.0000       2.519154        68.5497 
 306   0.0000       2.519853        68.5687 
 307   0.0000       2.522104        68.6300 
 308   0.0000       2.522409        68.6382 
 309   0.0000       2.528431        68.8021 
 310   0.0000       2.531707        68.8912 
 311   0.0000       2.533169        68.9310 
 312   0.0000       2.534715        68.9731 
 313   0.0000       2.539781        69.1110 
 314   0.0000       2.542473        69.1842 
 315   0.0000       2.544532        69.2402 
 316   0.0000       2.548390        69.3452 
 317   0.0000       2.558033        69.6076 
 318   0.0000       2.558999        69.6339 
 319   0.0000       2.562248        69.7223 
 320   0.0000       2.567257        69.8586 
 321   0.0000       2.569720        69.9256 
 322   0.0000       2.576823        70.1189 
 323   0.0000       2.579567        70.1936 
 324   0.0000       2.590726        70.4972 
 325   0.0000       2.592491        70.5453 
 326   0.0000       2.604148        70.8625 
 327   0.0000       2.610903        71.0463 
 328   0.0000       2.619212        71.2724 
 329   0.0000       2.622415        71.3595 
 330   0.0000       2.625057        71.4314 
 331   0.0000       2.628597        71.5278 
 332   0.0000       2.634263        71.6819 
 333   0.0000       2.636673        71.7475 
 334   0.0000       2.640605        71.8545 
 335   0.0000       2.642158        71.8968 
 336   0.0000       2.649165        72.0874 
 337   0.0000       2.652437        72.1765 
 338   0.0000       2.657525        72.3149 
 339   0.0000       2.660027        72.3830 
 340   0.0000       2.661789        72.4310 
 341   0.0000       2.665692        72.5372 
 342   0.0000       2.703175        73.5571 
 343   0.0000       2.711195        73.7754 
 344   0.0000       2.715011        73.8792 
 345   0.0000       2.717488        73.9466 
 346   0.0000       2.724582        74.1397 
 347   0.0000       2.729074        74.2619 
 348   0.0000       2.743847        74.6639 
 349   0.0000       2.749320        74.8128 
 350   0.0000       2.762254        75.1648 
 351   0.0000       2.776670        75.5570 
 352   0.0000       2.783165        75.7338 
 353   0.0000       2.785612        75.8004 
 354   0.0000       2.791600        75.9633 
 355   0.0000       2.797003        76.1103 
 356   0.0000       2.803408        76.2846 
 357   0.0000       2.832217        77.0686 
 358   0.0000       2.838061        77.2276 
 359   0.0000       2.855002        77.6886 
 360   0.0000       2.856130        77.7193 
 361   0.0000       2.890497        78.6544 
 362   0.0000       2.915291        79.3291 
 363   0.0000       2.949341        80.2556 
 364   0.0000       2.975706        80.9731 
 365   0.0000       2.991141        81.3931 
 366   0.0000       2.996112        81.5283 
 367   0.0000       3.005241        81.7768 
 368   0.0000       3.020433        82.1902 
 369   0.0000       3.040992        82.7496 
 370   0.0000       3.046609        82.9024 
 371   0.0000       3.050068        82.9966 
 372   0.0000       3.073101        83.6233 
 373   0.0000       3.084280        83.9275 
 374   0.0000       3.099538        84.3427 
 375   0.0000       3.126649        85.0804 
 376   0.0000       3.154842        85.8476 
 377   0.0000       3.182013        86.5870 
 378   0.0000       3.314937        90.2040 
 379   0.0000       3.351589        91.2014 
 380   0.0000       3.355158        91.2985 
 381   0.0000       3.362966        91.5110 
 382   0.0000       3.368112        91.6510 
 383   0.0000       3.380102        91.9773 
 384   0.0000       3.437086        93.5279 
 385   0.0000       3.443603        93.7052 
 386   0.0000       3.455408        94.0264 
 387   0.0000       3.459717        94.1437 
 388   0.0000       3.474243        94.5390 
 389   0.0000       3.524388        95.9035 
 390   0.0000       3.553718        96.7016 
 391   0.0000       3.588314        97.6430 
 392   0.0000       3.599952        97.9597 
 393   0.0000       3.781454       102.8986 
 394   0.0000       3.795691       103.2860 
 395   0.0000       3.803631       103.5021 
 396   0.0000       3.806349       103.5760 
 397   0.0000       3.818352       103.9026 
 398   0.0000       3.820423       103.9590 
 399   0.0000       4.018312       109.3438 
 400   0.0000       4.029251       109.6415 
 401   0.0000       4.038482       109.8927 
 402   0.0000       4.045955       110.0960 
 403   0.0000       4.161551       113.2416 
 404   0.0000       4.175781       113.6288 
 405   0.0000       4.423059       120.3576 
 406   0.0000       4.426604       120.4540 
 407   0.0000       4.439930       120.8166 
 408   0.0000       4.441722       120.8654 
 409   0.0000       4.637985       126.2060 
 410   0.0000       4.649994       126.5328 
 411   0.0000       4.650292       126.5409 
 412   0.0000       4.670666       127.0953 
 413   0.0000       5.115830       139.2088 
 414   0.0000       5.118909       139.2926 
 415   0.0000       5.135578       139.7462 
 416   0.0000       5.136953       139.7836 
 417   0.0000       5.226333       142.2157 
 418   0.0000       5.232932       142.3953 
 419   0.0000       5.249747       142.8529 
 420   0.0000       5.254373       142.9788 
 421   0.0000       5.332311       145.0996 
 422   0.0000       5.354378       145.7000 
 423   0.0000       5.357930       145.7967 
 424   0.0000       5.372980       146.2062 
 425   0.0000       5.384000       146.5061 
 426   0.0000       5.397231       146.8661 
 427   0.0000       5.570298       151.5755 
 428   0.0000       5.590463       152.1242 
 429   0.0000       5.742207       156.2534 
 430   0.0000       5.743484       156.2881 
 431   0.0000       5.760044       156.7388 
 432   0.0000       5.761608       156.7813 
 433   0.0000       6.042002       164.4112 
 434   0.0000       6.057219       164.8253 
 435   0.0000      11.297481       307.4201 
 436   0.0000      11.300056       307.4901 
 437   0.0000      11.313269       307.8497 
 438   0.0000      11.324295       308.1497 
 439   0.0000      11.332085       308.3617 
 440   0.0000      11.334738       308.4339 
 441   0.0000      11.347435       308.7794 
 442   0.0000      11.356768       309.0334 
 443   0.0000      11.364620       309.2470 
 444   0.0000      11.370062       309.3951 
 445   0.0000      11.371158       309.4250 
 446   0.0000      11.372718       309.4674 
 447   0.0000      11.376019       309.5572 
 448   0.0000      11.385935       309.8270 
 449   0.0000      11.397054       310.1296 
 450   0.0000      11.405825       310.3683 
 451   0.0000      11.426233       310.9236 
 452   0.0000      11.434143       311.1388 
 453   0.0000      22.900160       623.1450 
 454   0.0000      22.916407       623.5871 
 455   0.0000      25.330000       689.2643 
 456   0.0000      25.352192       689.8682 
 457   0.0000      25.414652       691.5678 
 458   0.0000      25.444454       692.3788 
 459   0.0000      25.539823       694.9739 
 460   0.0000      25.578051       696.0142 
 461   0.0000      32.666969       888.9134 
 462   0.0000      32.701994       889.8665 
 463   0.0000      35.893770       976.7191 
 464   0.0000      36.028182       980.3767 
 465   0.0000      36.032931       980.5059 
 466   0.0000      36.181992       984.5621 
 467   0.0000     123.874397      3370.7937 

                    ********************************
                    * MULLIKEN POPULATION ANALYSIS *
                    ********************************

-----------------------
MULLIKEN ATOMIC CHARGES
-----------------------
   0 C :   -0.242769
   1 N :   -0.298545
   2 H :    0.112581
   3 H :    0.112769
   4 H :    0.113955
   5 H :    0.265183
   6 H :    0.272507
   7 H :    0.275286
   8 Pb:    1.116796
   9 Cl:   -0.732294
  10 Cl:   -0.731000
  11 Cl:   -0.729977
  12 Cl:   -0.722594
  13 Cl:   -0.709738
  14 Cl:   -0.719939
  15 N :   -0.290533
  16 C :   -0.244090
  17 H :    0.260603
  18 H :    0.263030
  19 H :    0.119614
  20 H :    0.118464
  21 H :    0.116008
  22 H :    0.274685
Sum of atomic charges:   -2.0000000

--------------------------------
MULLIKEN REDUCED ORBITAL CHARGES
--------------------------------
  0 C s       :     3.239316  s :     3.239316
      pz      :     0.997132  p :     2.916567
      px      :     0.982144
      py      :     0.937290
      dz2     :     0.007908  d :     0.080438
      dxz     :     0.020918
      dyz     :     0.019467
      dx2y2   :     0.012530
      dxy     :     0.019616
      f0      :     0.000296  f :     0.006448
      f+1     :     0.000599
      f-1     :     0.000840
      f+2     :     0.000683
      f-2     :     0.002511
      f+3     :     0.000664
      f-3     :     0.000855
  1 N s       :     3.411908  s :     3.411908
      pz      :     1.297779  p :     3.836186
      px      :     1.287224
      py      :     1.251183
      dz2     :     0.004052  d :     0.048181
      dxz     :     0.013187
      dyz     :     0.012166
      dx2y2   :     0.006309
      dxy     :     0.012467
      f0      :     0.000134  f :     0.002269
      f+1     :     0.000203
      f-1     :     0.000208
      f+2     :     0.000209
      f-2     :     0.001065
      f+3     :     0.000224
      f-3     :     0.000226
  2 H s       :     0.866414  s :     0.866414
      pz      :     0.008061  p :     0.021005
      px      :     0.007564
      py      :     0.005380
  3 H s       :     0.866228  s :     0.866228
      pz      :     0.006265  p :     0.021003
      px      :     0.007135
      py      :     0.007604
  4 H s       :     0.865008  s :     0.865008
      pz      :     0.007751  p :     0.021036
      px      :     0.006781
      py      :     0.006504
  5 H s       :     0.689888  s :     0.689888
      pz      :     0.011858  p :     0.044929
      px      :     0.016067
      py      :     0.017004
  6 H s       :     0.681174  s :     0.681174
      pz      :     0.014910  p :     0.046320
      px      :     0.011328
      py      :     0.020081
  7 H s       :     0.676735  s :     0.676735
      pz      :     0.020609  p :     0.047979
      px      :     0.019760
      py      :     0.007611
  8 Pbs       :     4.014664  s :     4.014664
      pz      :     2.248176  p :     6.708565
      px      :     2.234291
      py      :     2.226098
      dz2     :     2.044068  d :    10.133546
      dxz     :     2.015228
      dyz     :     2.016301
      dx2y2   :     2.043739
      dxy     :     2.014210
      f0      :     0.006871  f :     0.026429
      f+1     :     0.003974
      f-1     :     0.004512
      f+2     :     0.001845
      f-2     :     0.000250
      f+3     :     0.004255
      f-3     :     0.004722
  9 Cls       :     5.958266  s :     5.958266
      pz      :     3.944972  p :    11.766382
      px      :     3.901979
      py      :     3.919431
      dz2     :     0.000896  d :     0.007360
      dxz     :     0.000739
      dyz     :     0.002224
      dx2y2   :     0.002509
      dxy     :     0.000993
      f0      :     0.000039  f :     0.000286
      f+1     :     0.000035
      f-1     :     0.000034
      f+2     :     0.000056
      f-2     :     0.000054
      f+3     :     0.000058
      f-3     :     0.000011
 10 Cls       :     5.957635  s :     5.957635
      pz      :     3.934754  p :    11.765204
      px      :     3.931540
      py      :     3.898910
      dz2     :     0.001107  d :     0.007832
      dxz     :     0.003221
      dyz     :     0.000584
      dx2y2   :     0.002355
      dxy     :     0.000563
      f0      :     0.000022  f :     0.000330
      f+1     :     0.000104
      f-1     :     0.000025
      f+2     :     0.000100
      f-2     :     0.000025
      f+3     :     0.000015
      f-3     :     0.000040
 11 Cls       :     5.959485  s :     5.959485
      pz      :     3.899795  p :    11.763176
      px      :     3.942758
      py      :     3.920623
      dz2     :     0.003018  d :     0.007061
      dxz     :     0.000758
      dyz     :     0.000879
      dx2y2   :     0.000394
      dxy     :     0.002013
      f0      :     0.000084  f :     0.000254
      f+1     :     0.000015
      f-1     :     0.000021
      f+2     :     0.000005
      f-2     :     0.000041
      f+3     :     0.000056
      f-3     :     0.000031
 12 Cls       :     5.960798  s :     5.960798
      pz      :     3.943825  p :    11.754781
      px      :     3.891144
      py      :     3.919812
      dz2     :     0.000969  d :     0.006791
      dxz     :     0.000631
      dyz     :     0.001836
      dx2y2   :     0.002639
      dxy     :     0.000716
      f0      :     0.000027  f :     0.000223
      f+1     :     0.000038
      f-1     :     0.000025
      f+2     :     0.000041
      f-2     :     0.000026
      f+3     :     0.000056
      f-3     :     0.000009
 13 Cls       :     5.959242  s :     5.959242
      pz      :     3.882420  p :    11.742363
      px      :     3.935559
      py      :     3.924384
      dz2     :     0.003923  d :     0.007866
      dxz     :     0.000857
      dyz     :     0.000948
      dx2y2   :     0.000351
      dxy     :     0.001788
      f0      :     0.000116  f :     0.000267
      f+1     :     0.000019
      f-1     :     0.000026
      f+2     :     0.000004
      f-2     :     0.000032
      f+3     :     0.000040
      f-3     :     0.000030
 14 Cls       :     5.957817  s :     5.957817
      pz      :     3.933389  p :    11.753633
      px      :     3.925550
      py      :     3.894694
      dz2     :     0.001177  d :     0.008168
      dxz     :     0.003084
      dyz     :     0.000756
      dx2y2   :     0.002572
      dxy     :     0.000579
      f0      :     0.000025  f :     0.000321
      f+1     :     0.000088
      f-1     :     0.000029
      f+2     :     0.000091
      f-2     :     0.000027
      f+3     :     0.000014
      f-3     :     0.000047
 15 N s       :     3.409399  s :     3.409399
      pz      :     1.296784  p :     3.830938
      px      :     1.287403
      py      :     1.246751
      dz2     :     0.004051  d :     0.047942
      dxz     :     0.013012
      dyz     :     0.012105
      dx2y2   :     0.006415
      dxy     :     0.012359
      f0      :     0.000129  f :     0.002254
      f+1     :     0.000203
      f-1     :     0.000210
      f+2     :     0.000210
      f-2     :     0.001048
      f+3     :     0.000225
      f-3     :     0.000228
 16 C s       :     3.242889  s :     3.242889
      pz      :     0.999515  p :     2.915227
      px      :     0.984741
      py      :     0.930970
      dz2     :     0.007701  d :     0.079539
      dxz     :     0.020732
      dyz     :     0.019234
      dx2y2   :     0.012270
      dxy     :     0.019602
      f0      :     0.000297  f :     0.006436
      f+1     :     0.000594
      f-1     :     0.000842
      f+2     :     0.000677
      f-2     :     0.002487
      f+3     :     0.000671
      f-3     :     0.000869
 17 H s       :     0.695746  s :     0.695746
      pz      :     0.014058  p :     0.043650
      px      :     0.010565
      py      :     0.019028
 18 H s       :     0.693412  s :     0.693412
      pz      :     0.011664  p :     0.043558
      px      :     0.015764
      py      :     0.016129
 19 H s       :     0.859287  s :     0.859287
      pz      :     0.007807  p :     0.021099
      px      :     0.006779
      py      :     0.006513
 20 H s       :     0.860460  s :     0.860460
      pz      :     0.006192  p :     0.021077
      px      :     0.007220
      py      :     0.007664
 21 H s       :     0.862972  s :     0.862972
      pz      :     0.008200  p :     0.021019
      px      :     0.007613
      py      :     0.005207
 22 H s       :     0.678073  s :     0.678073
      pz      :     0.020215  p :     0.047242
      px      :     0.019502
      py      :     0.007525


                     *******************************
                     * LOEWDIN POPULATION ANALYSIS *
                     *******************************

----------------------
LOEWDIN ATOMIC CHARGES
----------------------
   0 C :   -0.326373
   1 N :    0.038147
   2 H :    0.108877
   3 H :    0.108930
   4 H :    0.109591
   5 H :    0.140984
   6 H :    0.134613
   7 H :    0.127252
   8 Pb:    0.232048
   9 Cl:   -0.537004
  10 Cl:   -0.534406
  11 Cl:   -0.534175
  12 Cl:   -0.537934
  13 Cl:   -0.497044
  14 Cl:   -0.520530
  15 N :    0.045442
  16 C :   -0.321283
  17 H :    0.147952
  18 H :    0.149036
  19 H :    0.111712
  20 H :    0.111245
  21 H :    0.109991
  22 H :    0.132926

-------------------------------
LOEWDIN REDUCED ORBITAL CHARGES
-------------------------------
  0 C s       :     2.849205  s :     2.849205
      pz      :     1.050444  p :     3.101725
      px      :     1.040865
      py      :     1.010415
      dz2     :     0.030927  d :     0.335949
      dxz     :     0.086299
      dyz     :     0.084710
      dx2y2   :     0.046168
      dxy     :     0.087845
      f0      :     0.004591  f :     0.039494
      f+1     :     0.004301
      f-1     :     0.006629
      f+2     :     0.004156
      f-2     :     0.006877
      f+3     :     0.005721
      f-3     :     0.007218
  1 N s       :     3.018822  s :     3.018822
      pz      :     1.266788  p :     3.779203
      px      :     1.263556
      py      :     1.248860
      dz2     :     0.014259  d :     0.154141
      dxz     :     0.040032
      dyz     :     0.038719
      dx2y2   :     0.021143
      dxy     :     0.039988
      f0      :     0.001215  f :     0.009687
      f+1     :     0.001118
      f-1     :     0.001467
      f+2     :     0.000990
      f-2     :     0.001911
      f+3     :     0.001352
      f-3     :     0.001634
  2 H s       :     0.831276  s :     0.831276
      pz      :     0.022408  p :     0.059847
      px      :     0.021066
      py      :     0.016372
  3 H s       :     0.831232  s :     0.831232
      pz      :     0.017984  p :     0.059838
      px      :     0.021120
      py      :     0.020733
  4 H s       :     0.830529  s :     0.830529
      pz      :     0.022740  p :     0.059880
      px      :     0.019107
      py      :     0.018033
  5 H s       :     0.720190  s :     0.720190
      pz      :     0.040589  p :     0.138825
      px      :     0.048182
      py      :     0.050054
  6 H s       :     0.719900  s :     0.719900
      pz      :     0.045497  p :     0.145487
      px      :     0.038834
      py      :     0.061155
  7 H s       :     0.719968  s :     0.719968
      pz      :     0.065058  p :     0.152780
      px      :     0.061826
      py      :     0.025896
  8 Pbs       :     3.937152  s :     3.937152
      pz      :     2.408656  p :     7.171914
      px      :     2.386668
      py      :     2.376590
      dz2     :     2.223255  d :    10.591030
      dxz     :     2.052577
      dyz     :     2.059801
      dx2y2   :     2.208179
      dxy     :     2.047218
      f0      :     0.018689  f :     0.067855
      f+1     :     0.009904
      f-1     :     0.011239
      f+2     :     0.004331
      f-2     :     0.000533
      f+3     :     0.011130
      f-3     :     0.012029
  9 Cls       :     5.860534  s :     5.860534
      pz      :     3.923138  p :    11.663434
      px      :     3.848968
      py      :     3.891328
      dz2     :     0.001363  d :     0.012418
      dxz     :     0.000993
      dyz     :     0.004076
      dx2y2   :     0.004393
      dxy     :     0.001593
      f0      :     0.000067  f :     0.000618
      f+1     :     0.000062
      f-1     :     0.000063
      f+2     :     0.000130
      f-2     :     0.000130
      f+3     :     0.000141
      f-3     :     0.000025
 10 Cls       :     5.860285  s :     5.860285
      pz      :     3.905044  p :    11.660325
      px      :     3.903272
      py      :     3.852010
      dz2     :     0.001731  d :     0.013086
      dxz     :     0.005924
      dyz     :     0.000613
      dx2y2   :     0.004234
      dxy     :     0.000585
      f0      :     0.000030  f :     0.000710
      f+1     :     0.000231
      f-1     :     0.000046
      f+2     :     0.000247
      f-2     :     0.000038
      f+3     :     0.000042
      f-3     :     0.000076
 11 Cls       :     5.859610  s :     5.859610
      pz      :     3.846156  p :    11.662031
      px      :     3.919090
      py      :     3.896785
      dz2     :     0.005526  d :     0.011994
      dxz     :     0.000936
      dyz     :     0.001400
      dx2y2   :     0.000455
      dxy     :     0.003677
      f0      :     0.000184  f :     0.000540
      f+1     :     0.000025
      f-1     :     0.000047
      f+2     :     0.000007
      f-2     :     0.000098
      f+3     :     0.000118
      f-3     :     0.000060
 12 Cls       :     5.864023  s :     5.864023
      pz      :     3.925270  p :    11.662468
      px      :     3.839443
      py      :     3.897756
      dz2     :     0.001507  d :     0.010991
      dxz     :     0.000654
      dyz     :     0.003153
      dx2y2   :     0.004781
      dxy     :     0.000896
      f0      :     0.000040  f :     0.000452
      f+1     :     0.000066
      f-1     :     0.000046
      f+2     :     0.000100
      f-2     :     0.000056
      f+3     :     0.000122
      f-3     :     0.000022
 13 Cls       :     5.845682  s :     5.845682
      pz      :     3.827912  p :    11.637155
      px      :     3.910418
      py      :     3.898825
      dz2     :     0.007811  d :     0.013640
      dxz     :     0.000919
      dyz     :     0.001315
      dx2y2   :     0.000386
      dxy     :     0.003210
      f0      :     0.000268  f :     0.000568
      f+1     :     0.000027
      f-1     :     0.000049
      f+2     :     0.000005
      f-2     :     0.000075
      f+3     :     0.000082
      f-3     :     0.000061
 14 Cls       :     5.856061  s :     5.856061
      pz      :     3.904495  p :    11.650340
      px      :     3.898893
      py      :     3.846951
      dz2     :     0.001841  d :     0.013448
      dxz     :     0.005428
      dyz     :     0.000802
      dx2y2   :     0.004780
      dxy     :     0.000598
      f0      :     0.000034  f :     0.000681
      f+1     :     0.000191
      f-1     :     0.000055
      f+2     :     0.000222
      f-2     :     0.000044
      f+3     :     0.000038
      f-3     :     0.000097
 15 N s       :     3.017331  s :     3.017331
      pz      :     1.265220  p :     3.773395
      px      :     1.261944
      py      :     1.246231
      dz2     :     0.014233  d :     0.154216
      dxz     :     0.039811
      dyz     :     0.038671
      dx2y2   :     0.021477
      dxy     :     0.040024
      f0      :     0.001196  f :     0.009616
      f+1     :     0.001103
      f-1     :     0.001495
      f+2     :     0.000990
      f-2     :     0.001825
      f+3     :     0.001339
      f-3     :     0.001668
 16 C s       :     2.849208  s :     2.849208
      pz      :     1.051430  p :     3.099838
      px      :     1.041920
      py      :     1.006488
      dz2     :     0.030451  d :     0.332851
      dxz     :     0.085487
      dyz     :     0.083599
      dx2y2   :     0.045820
      dxy     :     0.087494
      f0      :     0.004539  f :     0.039385
      f+1     :     0.004168
      f-1     :     0.006706
      f+2     :     0.004104
      f-2     :     0.006859
      f+3     :     0.005703
      f-3     :     0.007305
 17 H s       :     0.718379  s :     0.718379
      pz      :     0.041674  p :     0.133669
      px      :     0.036193
      py      :     0.055802
 18 H s       :     0.718030  s :     0.718030
      pz      :     0.039698  p :     0.132934
      px      :     0.046544
      py      :     0.046692
 19 H s       :     0.828243  s :     0.828243
      pz      :     0.022922  p :     0.060045
      px      :     0.019112
      py      :     0.018010
 20 H s       :     0.828729  s :     0.828729
      pz      :     0.017813  p :     0.060026
      px      :     0.021379
      py      :     0.020834
 21 H s       :     0.830066  s :     0.830066
      pz      :     0.022775  p :     0.059943
      px      :     0.021212
      py      :     0.015956
 22 H s       :     0.717381  s :     0.717381
      pz      :     0.063559  p :     0.149693
      px      :     0.060695
      py      :     0.025438


                      *****************************
                      * MAYER POPULATION ANALYSIS *
                      *****************************

  NA   - Mulliken gross atomic population
  ZA   - Total nuclear charge
  QA   - Mulliken gross atomic charge
  VA   - Mayer's total valence
  BVA  - Mayer's bonded valence
  FA   - Mayer's free valence

  ATOM       NA         ZA         QA         VA         BVA        FA
  0 C      6.2428     6.0000    -0.2428     3.9562     3.9562     0.0000
  1 N      7.2985     7.0000    -0.2985     3.1154     3.1154     0.0000
  2 H      0.8874     1.0000     0.1126     0.9665     0.9665     0.0000
  3 H      0.8872     1.0000     0.1128     0.9661     0.9661    -0.0000
  4 H      0.8860     1.0000     0.1140     0.9672     0.9672     0.0000
  5 H      0.7348     1.0000     0.2652     1.0240     1.0240     0.0000
  6 H      0.7275     1.0000     0.2725     1.0193     1.0193    -0.0000
  7 H      0.7247     1.0000     0.2753     1.0207     1.0207     0.0000
  8 Pb    20.8832    22.0000     1.1168     1.5413     1.5413    -0.0000
  9 Cl    17.7323    17.0000    -0.7323     0.4896     0.4896     0.0000
 10 Cl    17.7310    17.0000    -0.7310     0.4925     0.4925     0.0000
 11 Cl    17.7300    17.0000    -0.7300     0.4923     0.4923     0.0000
 12 Cl    17.7226    17.0000    -0.7226     0.5065     0.5065    -0.0000
 13 Cl    17.7097    17.0000    -0.7097     0.5260     0.5260    -0.0000
 14 Cl    17.7199    17.0000    -0.7199     0.5114     0.5114     0.0000
 15 N      7.2905     7.0000    -0.2905     3.1300     3.1300     0.0000
 16 C      6.2441     6.0000    -0.2441     3.9442     3.9442     0.0000
 17 H      0.7394     1.0000     0.2606     1.0314     1.0314    -0.0000
 18 H      0.7370     1.0000     0.2630     1.0230     1.0230     0.0000
 19 H      0.8804     1.0000     0.1196     0.9666     0.9666     0.0000
 20 H      0.8815     1.0000     0.1185     0.9666     0.9666    -0.0000
 21 H      0.8840     1.0000     0.1160     0.9650     0.9650     0.0000
 22 H      0.7253     1.0000     0.2747     1.0231     1.0231     0.0000

  Mayer bond orders larger than 0.1
B(  0-C ,  1-N ) :   0.9588 B(  0-C ,  2-H ) :   0.9796 B(  0-C ,  3-H ) :   0.9792 
B(  0-C ,  4-H ) :   0.9791 B(  1-N ,  5-H ) :   0.7753 B(  1-N ,  6-H ) :   0.7656 
B(  1-N ,  7-H ) :   0.7540 B(  5-H , 11-Cl) :   0.2496 B(  6-H ,  9-Cl) :   0.2562 
B(  7-H , 10-Cl) :   0.2694 B(  8-Pb,  9-Cl) :   0.2453 B(  8-Pb, 10-Cl) :   0.2334 
B(  8-Pb, 11-Cl) :   0.2555 B(  8-Pb, 12-Cl) :   0.2659 B(  8-Pb, 13-Cl) :   0.2990 
B(  8-Pb, 14-Cl) :   0.2480 B( 12-Cl, 17-H ) :   0.2573 B( 13-Cl, 18-H ) :   0.2417 
B( 14-Cl, 22-H ) :   0.2761 B( 15-N , 16-C ) :   0.9556 B( 15-N , 17-H ) :   0.7766 
B( 15-N , 18-H ) :   0.7834 B( 15-N , 22-H ) :   0.7520 B( 16-C , 19-H ) :   0.9782 
B( 16-C , 20-H ) :   0.9782 B( 16-C , 21-H ) :   0.9787 

-------
TIMINGS
-------

Total SCF time: 0 days 0 hours 10 min 17 sec 

Total time                  ....     617.582 sec
Sum of individual times     ....     513.886 sec  ( 83.2%)

Fock matrix formation       ....     495.889 sec  ( 80.3%)
  Coulomb formation         ....     435.912 sec  ( 87.9% of F)
  Split-RI-J                ....      35.111 sec  (  7.1% of F)
  Chain of spheres X        ....     501.302 sec  (101.1% of F)
  COS-X 1 center corr.      ....       0.000 sec  (  0.0% of F)
  XC integration            ....      60.090 sec  ( 12.1% of F)
    Basis function eval.    ....      24.580 sec  ( 40.9% of XC)
    Density eval.           ....      15.924 sec  ( 26.5% of XC)
    XC-Functional eval.     ....       3.635 sec  (  6.0% of XC)
    XC-Potential eval.      ....      14.358 sec  ( 23.9% of XC)
Diagonalization             ....       0.341 sec  (  0.1%)
Density matrix formation    ....       0.152 sec  (  0.0%)
Population analysis         ....       0.413 sec  (  0.1%)
Initial guess               ....       2.024 sec  (  0.3%)
Orbital Transformation      ....       0.000 sec  (  0.0%)
Orbital Orthonormalization  ....       2.005 sec  (  0.3%)
DIIS solution               ....       0.097 sec  (  0.0%)
SOSCF solution              ....       1.019 sec  (  0.2%)
Grid generation             ....      13.952 sec  (  2.3%)

------------------------------------------------------------------------------
                              ORCA MP2 CALCULATION
------------------------------------------------------------------------------


----------------------
RI-MP2 ENERGY+GRADIENT
----------------------
Dimension of the basis                    ...  468
Memory devoted to MP2                     ... 1000 MB   
Data format for buffers                   ... DOUBLE
Compression type for matrix containers    ... UNCOMPRESSED
Overall scaling of the MP2 energy         ...   2.700e-01 Eh
Calculating two index integrals           ... done (    0.032 sec)
Cholesky decomposition of the V-matrix    ... done
Cholesky decomposition of V**-1           ... done (    0.132 sec)

-----------------
RI-TRANSFORMATION (AUX index driven)
-----------------

Dimension of the orbital-basis         ... 468
Dimension of the aux-basis             ... 810
Transformation of internal MOs         ...    0-  81
Transformation of internal/external MOs...    0-  81 to   82- 467
Number Format for Storage              ... Double (8 Byte)
Integral mode                          ... Direct

First Phase: integral generation and transformation of MO indices
  Aux angular momentum 0               ... done (    3.506 sec)
  Aux angular momentum 1               ... done (    3.087 sec)
  Aux angular momentum 2               ... done (    3.862 sec)
  Aux angular momentum 3               ... done (    1.839 sec)
  Aux angular momentum 4               ... done (    1.827 sec)
Closing buffer VIJ ( 0.02 GB; CompressionRatio= 1.98)
Closing buffer VIA ( 0.19 GB; CompressionRatio= 1.00)
  Phase 1 completed in    14.282 sec
Second Phase: sorting and transformation of aux index

IJ-Transformation
Memory available                       ... 972 MB 
Max. # MO pairs treated in a batch     ... 82    
# of internal orbitals                 ... 82
# batches for internal orbitals        ... 1
Closing buffer IJV ( 0.02 GB; CompressionRatio= 1.00)
(ij|v) transformation done in     1.229 sec

IA-Transformation
Memory available                       ... 972 MB 
Max. # MO pairs treated in a batch     ... 82    
# of internal orbitals                 ... 82
# batches for internal orbitals        ... 1
Closing buffer IAV ( 0.19 GB; CompressionRatio= 1.00)
(ia|v) transformation done in     4.940 sec

  Phase 2 completed in     7.301 sec
RI-Integral transformation completed in    21.584 sec
Opening buffers                              ... done

Starting loop over batches of integrals:

Operator 0  - window                       ... (  0- 81)x( 82-467)
Operator 0  - Memory available             ...  1000 MB
Operator 0  - Memory needed per MO         ...   4.8 MB
Operator 0  - Number of orbitals per batch ... 82
Operator 0  - Number of batches            ... 1

OPERATOR  0   PASS   0:  MOs     0 ...   81
  Reading integrals       ... ok
  Internal MO   2
  Internal MO   5
  Internal MO   8
  Internal MO  11
  Internal MO  14
  Internal MO  17
  Internal MO  20
  Internal MO  23
  Internal MO  26
  Internal MO  29
  Internal MO  32
  Internal MO  35
  Internal MO  38
  Internal MO  41
  Internal MO  44
  Internal MO  47
  Internal MO  50
  Internal MO  53
  Internal MO  56
  Internal MO  59
  Internal MO  62
  Internal MO  65
  Internal MO  68
  Internal MO  71
  Internal MO  74
  Internal MO  77
  Internal MO  80
Closing buffer GIPV ( 0.23 GB; CompressionRatio= 1.00)
Time spent in pair loops =  1361.700 sec

-----------------------------------------------
 RI-MP2 CORRELATION ENERGY:     -1.013142568 Eh
-----------------------------------------------


---------------------
MP2 DENSITY FORMATION
---------------------

Completing the external part of the density      ... done
Storing the unrelaxed density                    ... done

Calculating the xc-kernel                        ... done
Calculating G(D)                                 ... done
Completing the Lagrangian                        ... done
Solving the Z-vector equations                   ... 

------------------------------------------------------------------------------
                           ORCA CP-SCF CALCULATION
------------------------------------------------------------------------------

Input orbitals are from        ... PbCl6NH3CH3-2_mp2_sp_7.orca.gbw
Input Perturbation             ... PbCl6NH3CH3-2_mp2_sp_7.orca.pin.tmp
Wavefunction output            ... PbCl6NH3CH3-2_mp2_sp_7.orca.pout.tmp
Perturbation mode              ... Real perturbation
Solver                         ... POPLE
Max. number of iterations      ... 128
Convergence tolerance          ... 1.000e-08
[...]
      pz      :     0.008368  p :     0.021760
      px      :     0.007821
      py      :     0.005570
 22 H s       :     0.686778  s :     0.686778
      pz      :     0.020115  p :     0.047390
      px      :     0.019444
      py      :     0.007831


                     *******************************
                     * LOEWDIN POPULATION ANALYSIS *
                     *******************************

----------------------
LOEWDIN ATOMIC CHARGES
----------------------
   0 C :   -0.340719
   1 N :    0.032349
   2 H :    0.111393
   3 H :    0.111451
   4 H :    0.112100
   5 H :    0.137954
   6 H :    0.131741
   7 H :    0.124332
   8 Pb:    0.167577
   9 Cl:   -0.519308
  10 Cl:   -0.516835
  11 Cl:   -0.516160
  12 Cl:   -0.519402
  13 Cl:   -0.478908
  14 Cl:   -0.502824
  15 N :    0.039636
  16 C :   -0.335532
  17 H :    0.144781
  18 H :    0.145982
  19 H :    0.114207
  20 H :    0.113742
  21 H :    0.112514
  22 H :    0.129926

-------------------------------
LOEWDIN REDUCED ORBITAL CHARGES
-------------------------------
  0 C s       :     2.850023  s :     2.850023
      pz      :     1.052548  p :     3.108316
      px      :     1.043023
      py      :     1.012746
      dz2     :     0.032966  d :     0.341294
      dxz     :     0.086709
      dyz     :     0.085208
      dx2y2   :     0.048200
      dxy     :     0.088210
      f0      :     0.004823  f :     0.041086
      f+1     :     0.004497
      f-1     :     0.006817
      f+2     :     0.004330
      f-2     :     0.007261
      f+3     :     0.005945
      f-3     :     0.007413
  1 N s       :     3.020824  s :     3.020824
      pz      :     1.263678  p :     3.769114
      px      :     1.260296
      py      :     1.245141
      dz2     :     0.016594  d :     0.166550
      dxz     :     0.042695
      dyz     :     0.041240
      dx2y2   :     0.023508
      dxy     :     0.042512
      f0      :     0.001416  f :     0.011162
      f+1     :     0.001307
      f-1     :     0.001651
      f+2     :     0.001174
      f-2     :     0.002231
      f+3     :     0.001557
      f-3     :     0.001826
  2 H s       :     0.826594  s :     0.826594
      pz      :     0.023151  p :     0.062013
      px      :     0.021805
      py      :     0.017057
  3 H s       :     0.826551  s :     0.826551
      pz      :     0.018680  p :     0.061998
      px      :     0.021814
      py      :     0.021504
  4 H s       :     0.825868  s :     0.825868
      pz      :     0.023436  p :     0.062032
      px      :     0.019822
      py      :     0.018774
  5 H s       :     0.722045  s :     0.722045
      pz      :     0.041088  p :     0.140001
      px      :     0.048534
      py      :     0.050379
  6 H s       :     0.721712  s :     0.721712
      pz      :     0.045834  p :     0.146546
      px      :     0.039316
      py      :     0.061396
  7 H s       :     0.721949  s :     0.721949
      pz      :     0.065261  p :     0.153719
      px      :     0.062035
      py      :     0.026423
  8 Pbs       :     3.914417  s :     3.914417
      pz      :     2.437456  p :     7.260147
      px      :     2.416491
      py      :     2.406200
      dz2     :     2.212939  d :    10.555468
      dxz     :     2.047665
      dyz     :     2.054497
      dx2y2   :     2.198286
      dxy     :     2.042080
      f0      :     0.023228  f :     0.102392
      f+1     :     0.014910
      f-1     :     0.016186
      f+2     :     0.009538
      f-2     :     0.005643
      f+3     :     0.015993
      f-3     :     0.016894
  9 Cls       :     5.857996  s :     5.857996
      pz      :     3.905931  p :    11.605709
      px      :     3.827147
      py      :     3.872631
      dz2     :     0.009237  d :     0.052294
      dxz     :     0.008936
      dyz     :     0.012104
      dx2y2   :     0.012432
      dxy     :     0.009585
      f0      :     0.000447  f :     0.003308
      f+1     :     0.000442
      f-1     :     0.000444
      f+2     :     0.000520
      f-2     :     0.000516
      f+3     :     0.000529
      f-3     :     0.000410
 10 Cls       :     5.857768  s :     5.857768
      pz      :     3.887159  p :    11.602657
      px      :     3.885281
      py      :     3.830216
      dz2     :     0.009663  d :     0.053005
      dxz     :     0.014024
      dyz     :     0.008548
      dx2y2   :     0.012253
      dxy     :     0.008517
      f0      :     0.000411  f :     0.003406
      f+1     :     0.000625
      f-1     :     0.000425
      f+2     :     0.000642
      f-2     :     0.000420
      f+3     :     0.000424
      f-3     :     0.000459
 11 Cls       :     5.857101  s :     5.857101
      pz      :     3.824413  p :    11.603963
      px      :     3.901462
      py      :     3.878088
      dz2     :     0.013576  d :     0.051869
      dxz     :     0.008890
      dyz     :     0.009384
      dx2y2   :     0.008318
      dxy     :     0.011702
      f0      :     0.000576  f :     0.003227
      f+1     :     0.000409
      f-1     :     0.000433
      f+2     :     0.000383
      f-2     :     0.000482
      f+3     :     0.000502
      f-3     :     0.000441
 12 Cls       :     5.861507  s :     5.861507
      pz      :     3.907848  p :    11.604050
      px      :     3.817345
      py      :     3.878857
      dz2     :     0.009363  d :     0.050717
      dxz     :     0.008568
      dyz     :     0.011136
      dx2y2   :     0.012803
      dxy     :     0.008847
      f0      :     0.000419  f :     0.003128
      f+1     :     0.000445
      f-1     :     0.000426
      f+2     :     0.000488
      f-2     :     0.000437
      f+3     :     0.000509
      f-3     :     0.000405
 13 Cls       :     5.843342  s :     5.843342
      pz      :     3.806366  p :    11.578787
      px      :     3.892296
      py      :     3.880124
      dz2     :     0.015885  d :     0.053515
      dxz     :     0.008882
      dyz     :     0.009297
      dx2y2   :     0.008235
      dxy     :     0.011217
      f0      :     0.000667  f :     0.003264
      f+1     :     0.000415
      f-1     :     0.000438
      f+2     :     0.000381
      f-2     :     0.000459
      f+3     :     0.000463
      f-3     :     0.000440
 14 Cls       :     5.853595  s :     5.853595
      pz      :     3.886514  p :    11.592530
      px      :     3.880654
      py      :     3.825363
      dz2     :     0.009756  d :     0.053321
      dxz     :     0.013500
      dyz     :     0.008734
      dx2y2   :     0.012801
      dxy     :     0.008530
      f0      :     0.000416  f :     0.003378
      f+1     :     0.000583
      f-1     :     0.000436
      f+2     :     0.000617
      f-2     :     0.000426
      f+3     :     0.000421
      f-3     :     0.000481
 15 N s       :     3.019305  s :     3.019305
      pz      :     1.262221  p :     3.763573
      px      :     1.258784
      py      :     1.242568
      dz2     :     0.016547  d :     0.166405
      dxz     :     0.042412
      dyz     :     0.041142
      dx2y2   :     0.023819
      dxy     :     0.042484
      f0      :     0.001395  f :     0.011081
      f+1     :     0.001291
      f-1     :     0.001679
      f+2     :     0.001173
      f-2     :     0.002141
      f+3     :     0.001543
      f-3     :     0.001859
 16 C s       :     2.850008  s :     2.850008
      pz      :     1.053504  p :     3.106454
      px      :     1.044062
      py      :     1.008888
      dz2     :     0.032466  d :     0.338097
      dxz     :     0.085889
      dyz     :     0.084090
      dx2y2   :     0.047825
      dxy     :     0.087828
      f0      :     0.004767  f :     0.040973
      f+1     :     0.004367
      f-1     :     0.006897
      f+2     :     0.004283
      f-2     :     0.007234
      f+3     :     0.005926
      f-3     :     0.007500
 17 H s       :     0.720303  s :     0.720303
      pz      :     0.042067  p :     0.134916
      px      :     0.036696
      py      :     0.056153
 18 H s       :     0.719844  s :     0.719844
      pz      :     0.040192  p :     0.134174
      px      :     0.046922
      py      :     0.047060
 19 H s       :     0.823632  s :     0.823632
      pz      :     0.023612  p :     0.062161
      px      :     0.019812
      py      :     0.018737
 20 H s       :     0.824109  s :     0.824109
      pz      :     0.018493  p :     0.062148
      px      :     0.022068
      py      :     0.021587
 21 H s       :     0.825399  s :     0.825399
      pz      :     0.023506  p :     0.062087
      px      :     0.021939
      py      :     0.016642
 22 H s       :     0.719424  s :     0.719424
      pz      :     0.063781  p :     0.150650
      px      :     0.060923
      py      :     0.025946


                      *****************************
                      * MAYER POPULATION ANALYSIS *
                      *****************************

  NA   - Mulliken gross atomic population
  ZA   - Total nuclear charge
  QA   - Mulliken gross atomic charge
  VA   - Mayer's total valence
  BVA  - Mayer's bonded valence
  FA   - Mayer's free valence

  ATOM       NA         ZA         QA         VA         BVA        FA
  0 C      6.2690     6.0000    -0.2690     4.0041     3.8860     0.1180
  1 N      7.2909     7.0000    -0.2909     3.1992     3.0520     0.1472
  2 H      0.8829     1.0000     0.1171     0.9692     0.9493     0.0199
  3 H      0.8827     1.0000     0.1173     0.9688     0.9489     0.0198
  4 H      0.8815     1.0000     0.1185     0.9699     0.9501     0.0198
  5 H      0.7441     1.0000     0.2559     1.0325     1.0103     0.0222
  6 H      0.7362     1.0000     0.2638     1.0270     1.0051     0.0219
  7 H      0.7337     1.0000     0.2663     1.0283     1.0066     0.0217
  8 Pb    20.9704    22.0000     1.0296     1.9852     1.6231     0.3622
  9 Cl    17.7077    17.0000    -0.7077     0.7724     0.5155     0.2569
 10 Cl    17.7064    17.0000    -0.7064     0.7750     0.5182     0.2567
 11 Cl    17.7048    17.0000    -0.7048     0.7761     0.5188     0.2573
 12 Cl    17.6971    17.0000    -0.6971     0.7902     0.5326     0.2575
 13 Cl    17.6839    17.0000    -0.6839     0.8102     0.5521     0.2582
 14 Cl    17.6951    17.0000    -0.6951     0.7936     0.5367     0.2569
 15 N      7.2822     7.0000    -0.2822     3.2115     3.0653     0.1461
 16 C      6.2701     6.0000    -0.2701     3.9922     3.8747     0.1175
 17 H      0.7487     1.0000     0.2513     1.0400     1.0175     0.0225
 18 H      0.7462     1.0000     0.2538     1.0318     1.0095     0.0223
 19 H      0.8759     1.0000     0.1241     0.9692     0.9495     0.0196
 20 H      0.8771     1.0000     0.1229     0.9692     0.9495     0.0197
 21 H      0.8795     1.0000     0.1205     0.9676     0.9479     0.0197
 22 H      0.7342     1.0000     0.2658     1.0306     1.0087     0.0219

  Mayer bond orders larger than 0.1
B(  0-C ,  1-N ) :   0.9411 B(  0-C ,  2-H ) :   0.9607 B(  0-C ,  3-H ) :   0.9604 
B(  0-C ,  4-H ) :   0.9603 B(  1-N ,  5-H ) :   0.7557 B(  1-N ,  6-H ) :   0.7464 
B(  1-N ,  7-H ) :   0.7352 B(  5-H , 11-Cl) :   0.2555 B(  6-H ,  9-Cl) :   0.2614 
B(  7-H , 10-Cl) :   0.2742 B(  8-Pb,  9-Cl) :   0.2581 B(  8-Pb, 10-Cl) :   0.2459 
B(  8-Pb, 11-Cl) :   0.2686 B(  8-Pb, 12-Cl) :   0.2789 B(  8-Pb, 13-Cl) :   0.3118 
B(  8-Pb, 14-Cl) :   0.2603 B( 12-Cl, 17-H ) :   0.2633 B( 13-Cl, 18-H ) :   0.2480 
B( 14-Cl, 22-H ) :   0.2808 B( 15-N , 16-C ) :   0.9383 B( 15-N , 17-H ) :   0.7569 
B( 15-N , 18-H ) :   0.7636 B( 15-N , 22-H ) :   0.7332 B( 16-C , 19-H ) :   0.9596 
B( 16-C , 20-H ) :   0.9595 B( 16-C , 21-H ) :   0.9600 


-------
TIMINGS
-------

Total time                : 2499.248 sec
Integral trafo            :   21.600 sec (  0.9%)
I/O of integrals          :    2.703 sec (  0.1%)
K(i,j) Operators          :  172.428 sec (  6.9%)
T(i,j) pair energies      :   28.764 sec (  1.2%)
V-calculation             :    0.032 sec (  0.0%)
V**(-1/2)                 :    0.132 sec (  0.0%)
Gamma(ia|P)               :  158.504 sec (  6.3%)
Gamma-Trafo               :   11.297 sec (  0.5%)
D(virtual)                :   76.292 sec (  3.1%)
D(internal)               :  210.643 sec (  8.4%)
W(virtual)                :  151.611 sec (  6.1%)
W(internal)               :  465.481 sec ( 18.6%)
L(virtual)                :   71.867 sec (  2.9%)
L(internal)               :    4.810 sec (  0.2%)
G(D)                      :   55.278 sec (  2.2%)
G(Z)                      :   55.026 sec (  2.2%)
Z-Vector Solution         :  522.501 sec ( 20.9%)
Z-Vector Solution         :  522.501 sec ( 20.9%)
3-Index Derivative 
+ Separable RIJ part      :   29.822 sec (  1.2%)
2-Index Derivative 
+ Separable RIJ part      :    0.163 sec (  0.0%)
Separable Gradient (COSX) :  445.833 sec ( 17.8%)


---------------------------------------
MP2 TOTAL ENERGY:    -3146.562763344 Eh
---------------------------------------

The final MP2 gradient
  0:  -0.00037451   0.00034554  -0.00042206
  1:   0.00235873   0.00636453  -0.00179887
  2:   0.00293297  -0.00210891   0.00320667
  3:  -0.00275620   0.00309583   0.00261830
  4:   0.00284277   0.00276660  -0.00292155
  5:  -0.00478236  -0.00406525   0.00492971
  6:   0.00253900  -0.00459419  -0.00391169
  7:  -0.00260356   0.00097378  -0.00318823
  8:   0.00010861  -0.00389795  -0.00414658
  9:   0.00378892   0.00021647   0.00031046
 10:   0.00057796   0.00360285   0.00136976
 11:  -0.00156831  -0.00102499   0.00373157
 12:  -0.00582599   0.00464314   0.00445414
 13:   0.00304514   0.00336205  -0.00354188
 14:   0.00094898  -0.00340392   0.00142268
 15:  -0.00172029  -0.01198975  -0.00072284
 16:   0.00116575   0.00080308   0.00129523
 17:  -0.00395836   0.00435793   0.00339214
 18:   0.00493268   0.00502091  -0.00539442
 19:  -0.00313675  -0.00300091   0.00293202
 20:   0.00273006  -0.00343240  -0.00285092
 21:  -0.00314922   0.00202958  -0.00342502
 22:   0.00185823  -0.00023007   0.00259434

-----------------------------------
NORM OF THE MP2 GRADIENT:  0.028546
-----------------------------------

Entering the calculation of the dispersion correction...

Checking the input atom types...

Done


-------------------------------------------------------------------------------
                          DFT DISPERSION CORRECTION                            
                                                                               
                                DFTD3 V2.1  Rev 6                               
                          USING Becke-Johnson damping                          
-------------------------------------------------------------------------------
The B2PLYP functional is recognized
Active option DFTDOPT                   ...         4   

molecular C6(AA) [au] = 13728.251781 


            DFT-D V3
 parameters
 s6 scaling factor         :     0.6400 
 a1 scaling factor         :     0.3065 
 s8 scaling factor         :     0.9147 
 a2 scaling factor         :     5.0570 
 ad hoc parameters k1-k3   :    16.0000     1.3333    -4.0000 

 Edisp/kcal,au: -17.341141148103  -0.027634864516 
 E6   /kcal   :  -8.166616947 
 E8   /kcal   :  -9.174524201 
 % E8         :  52.906115709 

-------------------------   ----------------
Dispersion correction           -0.027634865
-------------------------   ----------------


-------------------------   --------------------
FINAL SINGLE POINT ENERGY     -3146.590398208788
-------------------------   --------------------


                            ***************************************
                            *     ORCA property calculations      *
                            ***************************************


  WARNING: The energy has been calculated at the MP2 level but the densities
           used in the property calculations are still SCF densities
           MP2 response densities have not been calculated 
           use %mp2 Density relaxed end
           or  %mp2 Density unrelaxed end

                                    ---------------------
                                    Active property flags
                                    ---------------------
   (+) Dipole Moment


------------------------------------------------------------------------------
                       ORCA ELECTRIC PROPERTIES CALCULATION
------------------------------------------------------------------------------

Dipole Moment Calculation                       ... on
Quadrupole Moment Calculation                   ... off
Polarizability Calculation                      ... off
GBWName                                         ... PbCl6NH3CH3-2_mp2_sp_7.orca.gbw
Electron density file                           ... PbCl6NH3CH3-2_mp2_sp_7.orca.scfp.tmp

-------------
DIPOLE MOMENT
-------------
                                X             Y             Z
Electronic contribution:      1.30252      -5.31492      -5.73757
Nuclear contribution   :     -1.47827       4.92035       5.31735
                        -----------------------------------------
Total Dipole Moment    :     -0.17575      -0.39457      -0.42022
                        -----------------------------------------
Magnitude (a.u.)       :      0.60262
Magnitude (Debye)      :      1.53175


                         *** MP2 UNRELAXED DENSITY ***

------------------------------------------------------------------------------
                       ORCA ELECTRIC PROPERTIES CALCULATION
------------------------------------------------------------------------------

Dipole Moment Calculation                       ... on
Quadrupole Moment Calculation                   ... off
Polarizability Calculation                      ... off
GBWName                                         ... PbCl6NH3CH3-2_mp2_sp_7.orca.gbw
Electron density file                           ... PbCl6NH3CH3-2_mp2_sp_7.orca.pmp2ur

-------------
DIPOLE MOMENT
-------------
                                X             Y             Z
Electronic contribution:      1.30177      -5.31398      -5.73659
Nuclear contribution   :     -1.47827       4.92035       5.31735
                        -----------------------------------------
Total Dipole Moment    :     -0.17650      -0.39363      -0.41923
                        -----------------------------------------
Magnitude (a.u.)       :      0.60154
Magnitude (Debye)      :      1.52899


                           *** MP2 RELAXED DENSITY ***

------------------------------------------------------------------------------
                       ORCA ELECTRIC PROPERTIES CALCULATION
------------------------------------------------------------------------------

Dipole Moment Calculation                       ... on
Quadrupole Moment Calculation                   ... off
Polarizability Calculation                      ... off
GBWName                                         ... PbCl6NH3CH3-2_mp2_sp_7.orca.gbw
Electron density file                           ... PbCl6NH3CH3-2_mp2_sp_7.orca.pmp2re

-------------
DIPOLE MOMENT
-------------
                                X             Y             Z
Electronic contribution:      1.30220      -5.30881      -5.72972
Nuclear contribution   :     -1.47827       4.92035       5.31735
                        -----------------------------------------
Total Dipole Moment    :     -0.17607      -0.38845      -0.41237
                        -----------------------------------------
Magnitude (a.u.)       :      0.59325
Magnitude (Debye)      :      1.50792


Timings for individual modules:

Sum of individual times         ...     3125.285 sec (=  52.088 min)
GTO integral calculation        ...        3.536 sec (=   0.059 min)   0.1 %
SCF iterations                  ...      620.886 sec (=  10.348 min)  19.9 %
MP2 module                      ...     2500.863 sec (=  41.681 min)  80.0 %
                             ****ORCA TERMINATED NORMALLY****
TOTAL RUN TIME: 0 days 0 hours 52 minutes 7 seconds 367 msec
