
                                 *****************
                                 * O   R   C   A *
                                 *****************

           --- An Ab Initio, DFT and Semiempirical electronic structure package ---

                  #######################################################
                  #                        -***-                        #
                  #  Department of molecular theory and spectroscopy    #
                  #              Directorship: Frank Neese              #
                  # Max Planck Institute for Chemical Energy Conversion #
                  #                  D-45470 Muelheim/Ruhr              #
                  #                       Germany                       #
                  #                                                     #
                  #                  All rights reserved                #
                  #                        -***-                        #
                  #######################################################


                         Program Version 3.0.3 - RELEASE   -


 With contributions from (in alphabetic order):
   Ute Becker             : Parallelization
   Dmytro Bykov           : SCF Hessian
   Dmitry Ganyushin       : Spin-Orbit,Spin-Spin,Magnetic field MRCI
   Andreas Hansen         : Spin unrestricted coupled pair/coupled cluster methods
   Dimitrios Liakos       : Extrapolation schemes; parallel MDCI
   Robert Izsak           : Overlap fitted RIJCOSX, COSX-SCS-MP3
   Christian Kollmar      : KDIIS, OOCD, Brueckner-CCSD(T), CCSD density
   Simone Kossmann        : Meta GGA functionals, TD-DFT gradient, OOMP2, MP2 Hessian
   Taras Petrenko         : DFT Hessian,TD-DFT gradient, ASA and ECA modules, normal mode analysis, Resonance Raman, ABS, FL, XAS/XES, NRVS
   Christoph Reimann      : Effective Core Potentials
   Michael Roemelt        : Restricted open shell CIS
   Christoph Riplinger    : Improved optimizer, TS searches, QM/MM, DLPNO-CCSD
   Barbara Sandhoefer     : DKH picture change effects
   Igor Schapiro          : Molecular dynamics
   Kantharuban Sivalingam : CASSCF convergence, NEVPT2
   Boris Wezisla          : Elementary symmetry handling
   Frank Wennmohs         : Technical directorship


 We gratefully acknowledge several colleagues who have allowed us to
 interface, adapt or use parts of their codes:
   Stefan Grimme, W. Hujo, H. Kruse, T. Risthaus : VdW corrections, initial TS optimization,
                                                   DFT functionals, gCP
   Ed Valeev                                     : LibInt (2-el integral package), F12 methods
   Garnet Chan, S. Sharma, R. Olivares           : DMRG
   Ulf Ekstrom                                   : XCFun DFT Library
   Mihaly Kallay                                 : mrcc  (arbitrary order and MRCC methods)
   Andreas Klamt, Michael Diedenhofen            : otool_cosmo (COSMO solvation model)
   Frank Weinhold                                : gennbo (NPA and NBO analysis)
   Christopher J. Cramer and Donald G. Truhlar   : smd solvation model


 Your calculation uses the libint2 library for the computation of 2-el integrals
 For citations please refer to: http://libint.valeyev.net

 This ORCA versions uses:
   CBLAS   interface :  Fast vector & matrix operations
   LAPACKE interface :  Fast linear algebra routines
   SCALAPACK package :  Parallel linear algebra routines


Your calculation utilizes the basis: Ahlrichs-TZV
Cite in your paper:
H - Kr: A. Schaefer, H. Horn and R. Ahlrichs, J. Chem. Phys. 97, 2571 (1992).

The def2-TZV basis will be loaded
Cite in your paper:
 	F. Weigend, R. Ahlrichs, Phys. Chem. Chem. Phys. 2005, 7, 3297.

Your calculation utilizes the atom-pairwise dispersion correction
with the Becke-Johnson damping scheme (D3BJ)
Cite in your paper:
S.Grimme, S.Ehrlich, L.Goerigk, J Comput Chem, (2011), 32, 1456–1465 
S.Grimme, J.Antony, S.Ehrlich and H.Krieg, J.Chem.Phys., 132, (2010), 154104 
   

================================================================================
                                        WARNINGS
                       Please study these warnings very carefully!
================================================================================

WARNING: The RI method has been chosen with no auxiliary basis (AUX or GTOAUX in BASIS block)
        Standard TZV/J expansion basis used (GTOAUX=TZV_J)

Now building the actual basis set
cite the ECPs for Pb [SD(60,MDF)] as follows:
  B. Metz, H. Stoll, M. Dolg, J. Chem. Phys. 113, 2563 (2000).

ECP parameters for Pb [SD(60,MDF)] have been obtained from:
  pseudopotential library of the Stuttgart/Cologne group
  http://www.theochem.uni-stuttgart.de/pseudopotentials/

cite the ECP basis sets for Pb [DEF2-TZVP] as follows:
  F. Weigend, R. Ahlrichs; Phys. Chem. Chem. Phys. 7, 3297(2005).

ECP basis sets for Pb [DEF2-TZVP] have been obtained from:
  Turbomole basis set library
  ftp://ftp.chemie.uni-karlsruhe.de/pub/basen/



INFO   : the flag for use of LIBINT has been found!

================================================================================
                                       INPUT FILE
================================================================================
NAME = PbMACl3_mp2_md2_3.orca
|  1> ! RIJCOSX RI-B2PLYP D3BJ def2-TZVP ECP{def2-TZVP} TIGHTSCF Grid5 FinalGrid6 SlowConv MORead
|  2> %method
|  3>  RunTyp Gradient
|  4>  end
|  5> %maxcore 1000
|  6> %moinp "previous.gbw"
|  7> *xyz 0 1
|  8> C -0.394281 0.276013 -0.426662 
|  9> N -1.165380 -0.685592 -1.253010 
| 10> H 0.248796 -0.278576 0.260517 
| 11> H -1.090820 0.897444 0.140826 
| 12> H 0.215705 0.904875 -1.079130 
| 13> H -1.783150 -1.324970 -0.698370 
| 14> H -0.582260 -1.326300 -1.835140 
| 15> H -1.813140 -0.240924 -1.938260 
| 16> Pb -2.758310 -3.881810 -2.722090 
| 17> Cl -1.287720 -3.274240 -4.744610 
| 18> Cl -2.642220 1.307920 -2.810960 
| 19> Cl -4.715560 -3.446470 -1.109150 
| 20> *
| 21> 
| 22>                          ****END OF INPUT****
================================================================================

                     *******************************
                     * Energy+Gradient Calculation *
                     *******************************

---------------------------------
CARTESIAN COORDINATES (ANGSTROEM)
---------------------------------
  C     -0.394281    0.276013   -0.426662
  N     -1.165380   -0.685592   -1.253010
  H      0.248796   -0.278576    0.260517
  H     -1.090820    0.897444    0.140826
  H      0.215705    0.904875   -1.079130
  H     -1.783150   -1.324970   -0.698370
  H     -0.582260   -1.326300   -1.835140
  H     -1.813140   -0.240924   -1.938260
  Pb    -2.758310   -3.881810   -2.722090
  Cl    -1.287720   -3.274240   -4.744610
  Cl    -2.642220    1.307920   -2.810960
  Cl    -4.715560   -3.446470   -1.109150

----------------------------
CARTESIAN COORDINATES (A.U.)
----------------------------
  NO LB      ZA    FRAG    MASS        X           Y           Z
   0 C     6.0000    0    12.011         -0.745083109808605          0.521588979402006         -0.806274331751109
   1 N     7.0000    0    14.007         -2.202249041949148         -1.295581119607339         -2.367845743064668
   2 H     1.0000    0     1.008          0.470156303215072         -0.526432347483247          0.492305783230763
   3 H     1.0000    0     1.008         -2.061351061403979          1.695923380530824          0.266122572535594
   4 H     1.0000    0     1.008          0.407623375717484          1.709965935431992         -2.039260162898440
   5 H     1.0000    0     1.008         -3.369665155701680         -2.503830435661641         -1.319728040146585
   6 H     1.0000    0     1.008         -1.100311938736988         -2.506343771419756         -3.467912017404246
   7 H     1.0000    0     1.008         -3.426338042457978         -0.455280379088844         -3.662780576334205
   8 Pb   22.0000*   0   207.200  -5.212450492456328  -7.335557803916855  -5.144004611885700
   9 Cl   17.0000    0    35.453         -2.433438137173074         -6.187416896730318         -8.966013512264109
  10 Cl   17.0000    0    35.453         -4.993072185569409          2.471610605078284         -5.311944573407282
  11 Cl   17.0000    0    35.453         -8.911116968073697         -6.512884428775576         -2.095989741438756
* core charge reduced due to ECP

--------------------------------
INTERNAL COORDINATES (ANGSTROEM)
--------------------------------
 C      0   0   0   0.000000     0.000     0.000
 N      1   0   0   1.483957     0.000     0.000
 H      1   2   0   1.092397   109.099     0.000
 H      1   2   3   1.092422   109.061   240.173
 H      1   2   3   1.092367   109.305   120.114
 H      2   1   3   1.047888   114.015    60.210
 H      2   1   3   1.043749   114.711   299.789
 H      2   1   3   1.042540   114.361   179.708
 Pb     6   2   1   3.403500   108.214   194.619
 Cl     9   6   2   2.573395    97.251     6.416
 Cl     8   2   1   1.961606   153.101     0.116
 Cl     9   6   2   2.573310    73.629   212.921

---------------------------
INTERNAL COORDINATES (A.U.)
---------------------------
 C      0   0   0   0.000000     0.000     0.000
 N      1   0   0   2.804273     0.000     0.000
 H      1   2   0   2.064332   109.099     0.000
 H      1   2   3   2.064378   109.061   240.173
 H      1   2   3   2.064274   109.305   120.114
 H      2   1   3   1.980222   114.015    60.210
 H      2   1   3   1.972399   114.711   299.789
 H      2   1   3   1.970116   114.361   179.708
 Pb     6   2   1   6.431682   108.214   194.619
 Cl     9   6   2   4.863012    97.251     6.416
 Cl     8   2   1   3.706897   153.101     0.116
 Cl     9   6   2   4.862851    73.629   212.921

---------------------
BASIS SET INFORMATION
---------------------
There are 5 groups of distinct atoms

 Group   1 Type C   : 11s6p2d1f contracted to 5s3p2d1f pattern {62111/411/11/1}
 Group   2 Type N   : 11s6p2d1f contracted to 5s3p2d1f pattern {62111/411/11/1}
 Group   3 Type H   : 5s1p contracted to 3s1p pattern {311/1}
 Group   4 Type Pb  : 10s9p8d2f contracted to 6s5p3d2f pattern {421111/33111/611/11}
 Group   5 Type Cl  : 14s9p3d1f contracted to 5s5p2d1f pattern {73211/51111/21/1}

Atom   0C    basis set group =>   1
Atom   1N    basis set group =>   2
Atom   2H    basis set group =>   3
Atom   3H    basis set group =>   3
Atom   4H    basis set group =>   3
Atom   5H    basis set group =>   3
Atom   6H    basis set group =>   3
Atom   7H    basis set group =>   3
Atom   8Pb   basis set group =>   4
Atom   9Cl   basis set group =>   5
Atom  10Cl   basis set group =>   5
Atom  11Cl   basis set group =>   5
-------------------------------
AUXILIARY BASIS SET INFORMATION
-------------------------------
There are 5 groups of distinct atoms

 Group   1 Type C   : 12s5p4d2f1g contracted to 6s4p3d1f1g pattern {711111/2111/211/2/1}
 Group   2 Type N   : 12s5p4d2f1g contracted to 6s4p3d1f1g pattern {711111/2111/211/2/1}
 Group   3 Type H   : 5s2p1d contracted to 3s1p1d pattern {311/2/1}
 Group   4 Type Pb  : 31s12p8d6f3g contracted to 31s12p8d6f3g pattern {1111111111111111111111111111111/111111111111/11111111/111111/111}
 Group   5 Type Cl  : 14s5p5d2f1g contracted to 8s4p3d1f1g pattern {71111111/2111/311/2/1}

Atom   0C    basis set group =>   1
Atom   1N    basis set group =>   2
Atom   2H    basis set group =>   3
Atom   3H    basis set group =>   3
Atom   4H    basis set group =>   3
Atom   5H    basis set group =>   3
Atom   6H    basis set group =>   3
Atom   7H    basis set group =>   3
Atom   8Pb   basis set group =>   4
Atom   9Cl   basis set group =>   5
Atom  10Cl   basis set group =>   5
Atom  11Cl   basis set group =>   5

-------------------------
ECP PARAMETER INFORMATION
-------------------------

 Group 1, Type Pb ECP SD(60,MDF) (replacing 60 core electrons, lmax=5)

Atom   8Pb   ECP group =>   1


------------------------------------------------------------------------------
                           ORCA GTO INTEGRAL CALCULATION
                           -- RI-GTO INTEGRALS CHOSEN --
------------------------------------------------------------------------------

                         BASIS SET STATISTICS AND STARTUP INFO

Gaussian basis set:
 # of primitive gaussian shells          ...  186
 # of primitive gaussian functions       ...  420
 # of contracted shells                  ...  101
 # of contracted basis functions         ...  259
 Highest angular momentum                ...    3
 Maximum contraction depth               ...    7
Auxiliary gaussian basis set:
 # of primitive gaussian shells          ...  237
 # of primitive gaussian functions       ...  643
 # of contracted shells                  ...  171
 # of contracted aux-basis functions     ...  493
 Highest angular momentum                ...    4
 Maximum contraction depth               ...    7
Ratio of auxiliary to basis functions    ...  1.90
Integral package used                  ... LIBINT
 One Electron integrals                  
   ECP integrals                         ... done
 Ordering auxiliary basis shells         ... done
 Integral threshhold             Thresh  ...  2.500e-11
 Primitive cut-off               TCut    ...  2.500e-12
 Pre-screening matrix                    ... done
 Shell pair data                         ... 
 Ordering of the shell pairs             ... done (   0.001 sec) 4044 of 5151 pairs
 Determination of significant pairs      ... done (   0.000 sec)
 Creation of shell pair data             ... done (   0.001 sec)
 Storage of shell pair data              ... done (   0.001 sec)
 Shell pair data done in (   0.003 sec)
 Computing two index integrals           ... done
 Cholesky decomposition of the V-matrix  ... done


Timings:
 Total evaluation time                   ...   0.556 sec (  0.009 min)
 One electron matrix time                ...   0.262 sec (  0.004 min) = 47.1%
 Schwartz matrix evaluation time         ...   0.205 sec (  0.003 min) = 36.9%
 Two index repulsion integral time       ...   0.008 sec (  0.000 min) =  1.4%
 Cholesky decomposition of V             ...   0.052 sec (  0.001 min) =  9.3%
 Three index repulsion integral time     ...   0.000 sec (  0.000 min) =  0.0%

-------------------------------------------------------------------------------
                                 ORCA SCF
-------------------------------------------------------------------------------

------------
SCF SETTINGS
------------
Hamiltonian:
 Density Functional     Method          .... DFT(GTOs)
 Exchange Functional    Exchange        .... B88
   X-Alpha parameter    XAlpha          ....  0.666667
   Becke's b parameter  XBeta           ....  0.004200
 Correlation Functional Correlation     .... LYP
 LDA part of GGA corr.  LDAOpt          .... VWN-3
 Gradients option       PostSCFGGA      .... off
 Hybrid DFT is turned on
   Fraction HF Exchange ScalHFX         ....  0.530000
   Scaling of DF-GGA-X  ScalDFX         ....  0.470000
   Scaling of DF-GGA-C  ScalDFC         ....  0.730000
   Scaling of DF-LDA-C  ScalLDAC        ....  0.730000
   Perturbative correction              ....  0.270000
 RI-approximation to the Coulomb term is turned on
   Number of auxiliary basis functions  .... 493
   RIJ-COSX (HFX calculated with COS-X)).... on


General Settings:
 Integral files         IntName         .... PbMACl3_mp2_md2_3.orca
 Hartree-Fock type      HFTyp           .... RHF
 Total Charge           Charge          ....    0
 Multiplicity           Mult            ....    1
 Number of Electrons    NEL             ....   92
 Basis Dimension        Dim             ....  259
 Nuclear Repulsion      ENuc            ....    501.7401851500 Eh

Convergence Acceleration:
 DIIS                   CNVDIIS         .... on
   Start iteration      DIISMaxIt       ....     0
   Startup error        DIISStart       ....  0.200000
   # of expansion vecs  DIISMaxEq       ....     5
   Bias factor          DIISBfac        ....   1.050
   Max. coefficient     DIISMaxC        ....  10.000
 Newton-Raphson         CNVNR           .... off
 SOSCF                  CNVSOSCF        .... on
   Start iteration      SOSCFMaxIt      ....   150
   Startup grad/error   SOSCFStart      ....  0.001000
 Level Shifting         CNVShift        .... on
   Level shift para.    LevelShift      ....    0.2500
   Turn off err/grad.   ShiftErr        ....    0.0000
 Zerner damping         CNVZerner       .... off
 Static damping         CNVDamp         .... on
   Fraction old density DampFac         ....    0.8500
   Max. Damping (<1)    DampMax         ....    0.9800
   Min. Damping (>=0)   DampMin         ....    0.0000
   Turn off err/grad.   DampErr         ....    0.0300
 Fernandez-Rico         CNVRico         .... off

SCF Procedure:
 Maximum # iterations   MaxIter         ....   125
 SCF integral mode      SCFMode         .... Direct
   Integral package                     .... LIBINT
 Reset frequeny         DirectResetFreq ....    20
 Integral Threshold     Thresh          ....  2.500e-11 Eh
 Primitive CutOff       TCut            ....  2.500e-12 Eh

Convergence Tolerance:
 Convergence Check Mode ConvCheckMode   .... Total+1el-Energy
 Energy Change          TolE            ....  1.000e-08 Eh
 1-El. energy change                    ....  1.000e-05 Eh
 Orbital Gradient       TolG            ....  1.000e-05
 Orbital Rotation angle TolX            ....  1.000e-05
 DIIS Error             TolErr          ....  5.000e-07


Diagonalization of the overlap matrix:
Smallest eigenvalue                        ... 1.092e-03
Time for diagonalization                   ...    0.135 sec
Threshold for overlap eigenvalues          ... 1.000e-08
Number of eigenvalues below threshold      ... 0
Time for construction of square roots      ...    0.005 sec
Total time needed                          ...    0.141 sec

---------------------
INITIAL GUESS: MOREAD
---------------------
Guess MOs are being read from file: previous.gbw
Input geometry compatible with but different from current geometry
Input basis set matches current basis set (good)
MOs were renormalized
MOs were reorthogonalized (Schmidt)
                      ------------------
                      INITIAL GUESS DONE (   0.1 sec)
                      ------------------
-------------------
DFT GRID GENERATION
-------------------

General Integration Accuracy     IntAcc      ...  5.010
Radial Grid Type                 RadialGrid  ... Gauss-Chebyshev
Angular Grid (max. acc.)         AngularGrid ... Lebedev-434
Angular grid pruning method      GridPruning ... 3 (G Style)
Weight generation scheme         WeightScheme... Becke
Basis function cutoff            BFCut       ...    1.0000e-11
Integration weight cutoff        WCut        ...    1.0000e-14
Grids for H and He will be reduced by one unit

# of grid points (after initial pruning)     ... 115882 (   0.0 sec)
# of grid points (after weights+screening)   ... 109809 (   0.2 sec)
nearest neighbour list constructed           ...    0.0 sec
Grid point re-assignment to atoms done       ...    0.0 sec
Grid point division into batches done        ...    1.0 sec
Reduced shell lists constructed in    3.2 sec

Total number of grid points                  ...   109809
Total number of batches                      ...     1722
Average number of points per batch           ...       63
Average number of grid points per atom       ...     9151
Average number of shells per batch           ...    49.00 (48.51%)
Average number of basis functions per batch  ...   125.29 (48.37%)
Average number of large shells per batch     ...    36.26 (74.00%)
Average number of large basis fcns per batch ...    91.99 (73.42%)
Maximum spatial batch extension              ...  35.21, 30.33, 35.59 au
Average spatial batch extension              ...   2.52,  2.50,  2.52 au

Time for grid setup =    3.454 sec

--------------------
COSX GRID GENERATION
--------------------

General Integration Accuracy     IntAcc      ...  3.340
Radial Grid Type                 RadialGrid  ... Gauss-Chebyshev
Angular Grid (max. acc.)         AngularGrid ... Lebedev-50
Angular grid pruning method      GridPruning ... 3 (G Style)
Weight generation scheme         WeightScheme... Becke
Basis function cutoff            BFCut       ...    1.0000e-11
Integration weight cutoff        WCut        ...    1.0000e-14
Grids for H and He will be reduced by one unit

# of grid points (after initial pruning)     ...   6578 (   0.0 sec)
# of grid points (after weights+screening)   ...   6250 (   0.0 sec)
nearest neighbour list constructed           ...    0.0 sec
Grid point re-assignment to atoms done       ...    0.0 sec
Grid point division into batches done        ...    0.0 sec
Reduced shell lists constructed in    0.1 sec

Total number of grid points                  ...     6250
Total number of batches                      ...      103
Average number of points per batch           ...       60
Average number of grid points per atom       ...      521
Average number of shells per batch           ...    59.89 (59.30%)
Average number of basis functions per batch  ...   156.66 (60.49%)
Average number of large shells per batch     ...    45.17 (75.42%)
Average number of large basis fcns per batch ...   116.65 (74.46%)
Maximum spatial batch extension              ...  44.74, 33.80, 31.92 au
Average spatial batch extension              ...   7.06,  6.84,  6.66 au

Overlap Fitting                  UseSFitting ... on
Constructing numerical overlap ... done (      0.1 sec)
Inverting numerical overlap    ... done (      0.0 sec)
Obtaining analytic overlap     ... done (      0.0 sec)
Final contraction and storage  ... done (      0.0 sec)


General Integration Accuracy     IntAcc      ...  3.670
Radial Grid Type                 RadialGrid  ... Gauss-Chebyshev
Angular Grid (max. acc.)         AngularGrid ... Lebedev-50
Angular grid pruning method      GridPruning ... 3 (G Style)
Weight generation scheme         WeightScheme... Becke
Basis function cutoff            BFCut       ...    1.0000e-11
Integration weight cutoff        WCut        ...    1.0000e-14
Grids for H and He will be reduced by one unit

# of grid points (after initial pruning)     ...   8124 (   0.0 sec)
# of grid points (after weights+screening)   ...   7695 (   0.0 sec)
nearest neighbour list constructed           ...    0.0 sec
Grid point re-assignment to atoms done       ...    0.0 sec
Grid point division into batches done        ...    0.0 sec
Reduced shell lists constructed in    0.2 sec

Total number of grid points                  ...     7695
Total number of batches                      ...      126
Average number of points per batch           ...       61
Average number of grid points per atom       ...      641
Average number of shells per batch           ...    58.98 (58.39%)
Average number of basis functions per batch  ...   153.57 (59.30%)
Average number of large shells per batch     ...    44.80 (75.97%)
Average number of large basis fcns per batch ...   115.07 (74.93%)
Maximum spatial batch extension              ...  46.50, 33.06, 33.69 au
Average spatial batch extension              ...   6.28,  5.94,  5.94 au

Overlap Fitting                  UseSFitting ... on
Constructing numerical overlap ... done (      0.1 sec)
Inverting numerical overlap    ... done (      0.0 sec)
Obtaining analytic overlap     ... done (      0.0 sec)
Final contraction and storage  ... done (      0.0 sec)


General Integration Accuracy     IntAcc      ...  4.010
Radial Grid Type                 RadialGrid  ... Gauss-Chebyshev
Angular Grid (max. acc.)         AngularGrid ... Lebedev-110
Angular grid pruning method      GridPruning ... 3 (G Style)
Weight generation scheme         WeightScheme... Becke
Basis function cutoff            BFCut       ...    1.0000e-11
Integration weight cutoff        WCut        ...    1.0000e-14
Grids for H and He will be reduced by one unit

# of grid points (after initial pruning)     ...  15170 (   0.0 sec)
# of grid points (after weights+screening)   ...  14496 (   0.0 sec)
nearest neighbour list constructed           ...    0.0 sec
Grid point re-assignment to atoms done       ...    0.0 sec
Grid point division into batches done        ...    0.0 sec
Reduced shell lists constructed in    0.3 sec

Total number of grid points                  ...    14496
Total number of batches                      ...      232
Average number of points per batch           ...       62
Average number of grid points per atom       ...     1208
Average number of shells per batch           ...    55.60 (55.05%)
Average number of basis functions per batch  ...   144.52 (55.80%)
Average number of large shells per batch     ...    41.79 (75.15%)
Average number of large basis fcns per batch ...   107.00 (74.04%)
Maximum spatial batch extension              ...  29.18, 29.23, 33.78 au
Average spatial batch extension              ...   5.41,  5.26,  5.13 au

Overlap Fitting                  UseSFitting ... on
Constructing numerical overlap ... done (      0.2 sec)
Inverting numerical overlap    ... done (      0.0 sec)
Obtaining analytic overlap     ... done (      0.0 sec)
Final contraction and storage  ... done (      0.0 sec)

Time for X-Grid setup             =    1.262 sec
--------------
SCF ITERATIONS
--------------
ITER       Energy         Delta-E        Max-DP      RMS-DP      [F,P]     Damp
               ***  Starting incremental Fock matrix formation  ***
  0  -1668.6027289962   0.000000000000 0.03123159  0.00050105  0.5657022 0.8500
  1  -1668.6421910785  -0.039462082254 0.02907065  0.00058735  0.4813683 0.8500
                               ***Turning on DIIS***
  2  -1668.6797659243  -0.037574845797 0.02505985  0.00056290  0.4094167 0.8500
  3  -1668.7125514712  -0.032785546917 0.02324166  0.00050666  0.3481926 0.8500
  4  -1668.7412777542  -0.028726283054 0.02139332  0.00046746  0.2960545 0.8500
  5  -1668.7663752754  -0.025097521191 0.01965933  0.00043434  0.2516805 0.8500
  6  -1668.7885708739  -0.022195598505 0.01789866  0.00039902  0.2139468 0.8500
  7  -1668.8082595955  -0.019688721594 0.01620252  0.00036410  0.1818689 0.8500
  8  -1668.8256930200  -0.017433424494 0.01444172  0.00032754  0.1546025 0.8500
  9  -1668.8410016981  -0.015308678114 0.01268685  0.00029090  0.1314232 0.8500
 10  -1668.8543898049  -0.013388106760 0.01105571  0.00025665  0.1117175 0.8500
 11  -1668.8660783452  -0.011688540267 0.00960347  0.00022582  0.0949652 0.8500
 12  -1668.8762674135  -0.010189068379 0.00832987  0.00019838  0.0807244 0.8500
 13  -1668.8851316847  -0.008864271176 0.00720983  0.00017392  0.0686187 0.8500
 14  -1668.8928252515  -0.007693566749 0.00622350  0.00015211  0.0583282 0.8500
 15  -1668.8994878261  -0.006662574601 0.00535981  0.00013276  0.0495807 0.8500
 16  -1668.9052464561  -0.005758630008 0.00460953  0.00011571  0.0421449 0.8500
 17  -1668.9102153935  -0.004968937468 0.00396140  0.00010077  0.0358241 0.8500
 18  -1668.9144963339  -0.004280940388 0.00342144  0.00008770  0.0304512 0.8500
 19  -1668.9181792700  -0.003682936108 0.01972468  0.00050849  0.0258841 0.0000
               *** Restarting incremental Fock matrix formation ***
                                   *** Resetting DIIS ***
                      *** Initiating the SOSCF procedure ***
                           *** Shutting down DIIS ***
                      *** Re-Reading the Fockian *** 
                      *** Removing any level shift *** 
ITER      Energy       Delta-E        Grad      Rot      Max-DP    RMS-DP
 20  -1668.94264361  -0.0244643354  0.000970  0.000970  0.002032  0.000037
               *** Restarting incremental Fock matrix formation ***
 21  -1668.93995769   0.0026859162  0.000810  0.003963  0.001727  0.000045
 22  -1668.93997217  -0.0000144771  0.000338  0.003736  0.001318  0.000034
 23  -1668.93997551  -0.0000033411  0.000267  0.000259  0.000522  0.000011
 24  -1668.93997677  -0.0000012669  0.000054  0.000200  0.000111  0.000003
 25  -1668.93997696  -0.0000001814  0.000010  0.000054  0.000039  0.000001
 26  -1668.93997695   0.0000000031  0.000007  0.000044  0.000023  0.000000
                  ***Gradient check signals convergence***
              ***Rediagonalizing the Fockian in SOSCF/NRSCF***

               *****************************************************
               *                     SUCCESS                       *
               *           SCF CONVERGED AFTER  27 CYCLES          *
               *****************************************************

Old exchange energy                            =    -59.145802575 Eh
New exchange energy                            =    -59.148444649 Eh
Exchange energy change after final integration =     -0.002642074 Eh
Total energy after final integration           =  -1668.942619046 Eh
Final COS-X integration done in                =    15.787 sec

----------------
TOTAL SCF ENERGY
----------------

Total Energy       :        -1668.94261905 Eh          -45414.23748 eV

Components:
Nuclear Repulsion  :          501.74018515 Eh           13653.04455 eV
Electronic Energy  :        -2170.68280420 Eh          -59067.28202 eV

One Electron Energy:        -3373.26971775 Eh          -91791.33560 eV
Two Electron Energy:         1202.58691356 Eh           32724.05358 eV

Virial components:
Potential Energy   :        -3206.33345448 Eh          -87248.76894 eV
Kinetic Energy     :         1537.39083544 Eh           41834.53146 eV
Virial Ratio       :            2.08556821


DFT components:
N(Alpha)           :       46.000008324568 electrons
N(Beta)            :       46.000008324568 electrons
N(Total)           :       92.000016649137 electrons
E(X)               :      -52.540475033564 Eh       
E(C)               :       -2.593258270060 Eh       
E(XC)              :      -55.133733303624 Eh       

---------------
SCF CONVERGENCE
---------------

  Last Energy change         ...   -1.9310e-08  Tolerance :   1.0000e-08
  Last MAX-Density change    ...    8.6819e-14  Tolerance :   1.0000e-07
  Last RMS-Density change    ...    8.0415e-16  Tolerance :   5.0000e-09
  Last Orbital Gradient      ...    1.4742e-06  Tolerance :   1.0000e-05
  Last Orbital Rotation      ...    5.2380e-06  Tolerance :   1.0000e-05

             **** THE GBW FILE WAS UPDATED (PbMACl3_mp2_md2_3.orca.gbw) ****
             **** DENSITY FILE WAS UPDATED (PbMACl3_mp2_md2_3.orca.scfp.tmp) ****
             **** ENERGY FILE WAS UPDATED (PbMACl3_mp2_md2_3.orca.en.tmp) ****
----------------
ORBITAL ENERGIES
----------------

  NO   OCC          E(Eh)            E(eV) 
   0   2.0000    -102.883112     -2799.5918 
   1   2.0000    -102.882575     -2799.5772 
   2   2.0000    -102.758808     -2796.2093 
   3   2.0000     -14.990223      -407.9047 
   4   2.0000     -10.712698      -291.5073 
   5   2.0000      -9.889294      -269.1014 
   6   2.0000      -9.888726      -269.0859 
   7   2.0000      -9.764951      -265.7178 
   8   2.0000      -7.526024      -204.7935 
   9   2.0000      -7.525468      -204.7784 
  10   2.0000      -7.524895      -204.7628 
  11   2.0000      -7.524350      -204.7480 
  12   2.0000      -7.524332      -204.7475 
  13   2.0000      -7.523775      -204.7323 
  14   2.0000      -7.401722      -201.4111 
  15   2.0000      -7.400679      -201.3827 
  16   2.0000      -7.400650      -201.3819 
  17   2.0000      -5.878186      -159.9536 
  18   2.0000      -3.652950       -99.4018 
  19   2.0000      -3.650234       -99.3279 
  20   2.0000      -3.642898       -99.1283 
  21   2.0000      -1.159463       -31.5506 
  22   2.0000      -1.043424       -28.3930 
  23   2.0000      -1.042133       -28.3579 
  24   2.0000      -1.039074       -28.2746 
  25   2.0000      -1.035180       -28.1687 
  26   2.0000      -1.033472       -28.1222 
  27   2.0000      -0.895638       -24.3715 
  28   2.0000      -0.894802       -24.3488 
  29   2.0000      -0.868529       -23.6339 
  30   2.0000      -0.779187       -21.2027 
  31   2.0000      -0.689457       -18.7611 
  32   2.0000      -0.673450       -18.3255 
  33   2.0000      -0.613808       -16.7026 
  34   2.0000      -0.603749       -16.4288 
  35   2.0000      -0.522350       -14.2139 
  36   2.0000      -0.522095       -14.2069 
  37   2.0000      -0.425937       -11.5903 
  38   2.0000      -0.381499       -10.3811 
  39   2.0000      -0.379670       -10.3313 
  40   2.0000      -0.369687       -10.0597 
  41   2.0000      -0.368368       -10.0238 
  42   2.0000      -0.326329        -8.8799 
  43   2.0000      -0.271547        -7.3892 
  44   2.0000      -0.259484        -7.0609 
  45   2.0000      -0.258755        -7.0411 
  46   0.0000      -0.121744        -3.3128 
  47   0.0000      -0.098958        -2.6928 
  48   0.0000       0.009594         0.2611 
  49   0.0000       0.012310         0.3350 
  50   0.0000       0.061974         1.6864 
  51   0.0000       0.067117         1.8264 
  52   0.0000       0.085995         2.3401 
  53   0.0000       0.097885         2.6636 
  54   0.0000       0.110276         3.0008 
  55   0.0000       0.127786         3.4772 
  56   0.0000       0.132359         3.6017 
  57   0.0000       0.135178         3.6784 
  58   0.0000       0.155947         4.2435 
  59   0.0000       0.172234         4.6867 
  60   0.0000       0.188195         5.1210 
  61   0.0000       0.196558         5.3486 
  62   0.0000       0.225018         6.1231 
  63   0.0000       0.245630         6.6839 
  64   0.0000       0.253700         6.9035 
  65   0.0000       0.258201         7.0260 
  66   0.0000       0.285026         7.7559 
  67   0.0000       0.290938         7.9168 
  68   0.0000       0.306465         8.3393 
  69   0.0000       0.336873         9.1668 
  70   0.0000       0.383167        10.4265 
  71   0.0000       0.394466        10.7340 
  72   0.0000       0.414984        11.2923 
  73   0.0000       0.420117        11.4320 
  74   0.0000       0.425211        11.5706 
  75   0.0000       0.436388        11.8747 
  76   0.0000       0.441202        12.0057 
  77   0.0000       0.447030        12.1643 
  78   0.0000       0.465168        12.6579 
  79   0.0000       0.467751        12.7281 
  80   0.0000       0.480195        13.0668 
  81   0.0000       0.492369        13.3981 
  82   0.0000       0.493984        13.4420 
  83   0.0000       0.495030        13.4705 
  84   0.0000       0.501268        13.6402 
  85   0.0000       0.514727        14.0064 
  86   0.0000       0.528071        14.3695 
  87   0.0000       0.530467        14.4347 
  88   0.0000       0.540614        14.7108 
  89   0.0000       0.546854        14.8806 
  90   0.0000       0.556372        15.1396 
  91   0.0000       0.565845        15.3974 
  92   0.0000       0.581712        15.8292 
  93   0.0000       0.585278        15.9262 
  94   0.0000       0.601929        16.3793 
  95   0.0000       0.611476        16.6391 
  96   0.0000       0.622652        16.9432 
  97   0.0000       0.624430        16.9916 
  98   0.0000       0.636078        17.3086 
  99   0.0000       0.651777        17.7358 
 100   0.0000       0.658782        17.9264 
 101   0.0000       0.666209        18.1285 
 102   0.0000       0.681553        18.5460 
 103   0.0000       0.702048        19.1037 
 104   0.0000       0.712442        19.3865 
 105   0.0000       0.725867        19.7519 
 106   0.0000       0.728358        19.8196 
 107   0.0000       0.738760        20.1027 
 108   0.0000       0.757768        20.6199 
 109   0.0000       0.792834        21.5741 
 110   0.0000       0.799182        21.7468 
 111   0.0000       0.820251        22.3202 
 112   0.0000       0.859183        23.3796 
 113   0.0000       0.870546        23.6888 
 114   0.0000       0.887733        24.1565 
 115   0.0000       0.902431        24.5564 
 116   0.0000       0.922448        25.1011 
 117   0.0000       0.987883        26.8817 
 118   0.0000       1.006818        27.3969 
 119   0.0000       1.009265        27.4635 
 120   0.0000       1.033371        28.1195 
 121   0.0000       1.034559        28.1518 
 122   0.0000       1.064470        28.9657 
 123   0.0000       1.097176        29.8557 
 124   0.0000       1.179705        32.1014 
 125   0.0000       1.202973        32.7346 
 126   0.0000       1.220825        33.2203 
 127   0.0000       1.260238        34.2928 
 128   0.0000       1.288844        35.0712 
 129   0.0000       1.339165        36.4405 
 130   0.0000       1.491156        40.5764 
 131   0.0000       1.565408        42.5969 
 132   0.0000       1.568986        42.6943 
 133   0.0000       1.586448        43.1695 
 134   0.0000       1.600018        43.5387 
 135   0.0000       1.600897        43.5626 
 136   0.0000       1.697455        46.1901 
 137   0.0000       1.799693        48.9721 
 138   0.0000       1.825032        49.6616 
 139   0.0000       1.868865        50.8544 
 140   0.0000       1.874610        51.0107 
 141   0.0000       1.879839        51.1530 
 142   0.0000       1.891076        51.4588 
 143   0.0000       1.898150        51.6513 
 144   0.0000       1.901636        51.7462 
 145   0.0000       1.919606        52.2351 
 146   0.0000       1.945925        52.9513 
 147   0.0000       1.960465        53.3470 
 148   0.0000       1.968379        53.5623 
 149   0.0000       1.970079        53.6086 
 150   0.0000       1.996128        54.3174 
 151   0.0000       1.999954        54.4215 
 152   0.0000       2.009748        54.6880 
 153   0.0000       2.017459        54.8978 
 154   0.0000       2.023086        55.0510 
 155   0.0000       2.044148        55.6241 
 156   0.0000       2.046163        55.6789 
 157   0.0000       2.078304        56.5535 
 158   0.0000       2.081880        56.6508 
 159   0.0000       2.089898        56.8690 
 160   0.0000       2.094839        57.0035 
 161   0.0000       2.098268        57.0968 
 162   0.0000       2.109201        57.3943 
 163   0.0000       2.116720        57.5989 
 164   0.0000       2.128131        57.9094 
 165   0.0000       2.169268        59.0288 
 166   0.0000       2.171090        59.0784 
 167   0.0000       2.229404        60.6652 
 168   0.0000       2.229969        60.6805 
 169   0.0000       2.230732        60.7013 
 170   0.0000       2.231526        60.7229 
 171   0.0000       2.232350        60.7453 
 172   0.0000       2.234694        60.8091 
 173   0.0000       2.240893        60.9778 
 174   0.0000       2.267007        61.6884 
 175   0.0000       2.270024        61.7705 
 176   0.0000       2.273728        61.8713 
 177   0.0000       2.277079        61.9625 
 178   0.0000       2.317006        63.0489 
 179   0.0000       2.330209        63.4082 
 180   0.0000       2.336470        63.5786 
 181   0.0000       2.337746        63.6133 
 182   0.0000       2.346421        63.8494 
 183   0.0000       2.347272        63.8725 
 184   0.0000       2.353744        64.0486 
 185   0.0000       2.356737        64.1301 
 186   0.0000       2.367063        64.4111 
 187   0.0000       2.368893        64.4609 
 188   0.0000       2.372198        64.5508 
 189   0.0000       2.382662        64.8355 
 190   0.0000       2.386855        64.9496 
 191   0.0000       2.389522        65.0222 
 192   0.0000       2.392407        65.1007 
 193   0.0000       2.396789        65.2199 
 194   0.0000       2.414028        65.6890 
 195   0.0000       2.453910        66.7743 
 196   0.0000       2.461064        66.9690 
 197   0.0000       2.473233        67.3001 
 198   0.0000       2.482318        67.5473 
 199   0.0000       2.507194        68.2242 
 200   0.0000       2.537495        69.0488 
 201   0.0000       2.543823        69.2209 
 202   0.0000       2.613834        71.1260 
 203   0.0000       2.628926        71.5367 
 204   0.0000       2.647915        72.0534 
 205   0.0000       2.692298        73.2612 
 206   0.0000       2.733583        74.3846 
 207   0.0000       2.770508        75.3894 
 208   0.0000       2.799380        76.1750 
 209   0.0000       2.896890        78.8284 
 210   0.0000       2.978480        81.0486 
 211   0.0000       3.043481        82.8173 
 212   0.0000       3.111023        84.6552 
 213   0.0000       3.124493        85.0218 
 214   0.0000       3.172050        86.3159 
 215   0.0000       3.199237        87.0557 
 216   0.0000       3.205202        87.2180 
 217   0.0000       3.280380        89.2637 
 218   0.0000       3.395911        92.4074 
 219   0.0000       3.550968        96.6267 
 220   0.0000       3.566113        97.0389 
 221   0.0000       3.591074        97.7181 
 222   0.0000       3.752258       102.1041 
 223   0.0000       3.800234       103.4096 
 224   0.0000       3.898918       106.0949 
 225   0.0000       4.161091       113.2291 
 226   0.0000       4.179729       113.7362 
 227   0.0000       4.383825       119.2899 
 228   0.0000       4.443612       120.9168 
 229   0.0000       4.822382       131.2237 
 230   0.0000       4.829749       131.4242 
 231   0.0000       4.922557       133.9496 
 232   0.0000       4.928075       134.0997 
 233   0.0000       5.038962       137.1171 
 234   0.0000       5.074100       138.0733 
 235   0.0000       5.125148       139.4624 
 236   0.0000       5.299496       144.2066 
 237   0.0000       5.448569       148.2631 
 238   0.0000       5.486123       149.2850 
 239   0.0000       5.794091       157.6652 
 240   0.0000      11.012178       299.6566 
 241   0.0000      11.029644       300.1319 
 242   0.0000      11.031088       300.1712 
 243   0.0000      11.039108       300.3894 
 244   0.0000      11.127867       302.8047 
 245   0.0000      11.129102       302.8383 
 246   0.0000      11.137120       303.0564 
 247   0.0000      11.146178       303.3029 
 248   0.0000      11.204301       304.8845 
 249   0.0000      22.649571       616.3262 
 250   0.0000      24.911511       677.8767 
 251   0.0000      25.032175       681.1601 
 252   0.0000      25.121668       683.5954 
 253   0.0000      32.289660       878.6463 
 254   0.0000      35.425040       963.9644 
 255   0.0000      35.626572       969.4483 
 256   0.0000      35.662426       970.4240 
 257   0.0000      35.733608       972.3609 
 258   0.0000     123.508949      3360.8494 

                    ********************************
                    * MULLIKEN POPULATION ANALYSIS *
                    ********************************

-----------------------
MULLIKEN ATOMIC CHARGES
-----------------------
   0 C :   -0.227613
   1 N :   -0.304414
   2 H :    0.134594
   3 H :    0.175557
   4 H :    0.175592
   5 H :    0.269339
   6 H :    0.272357
   7 H :    0.257087
   8 Pb:    0.934461
   9 Cl:   -0.464714
  10 Cl:   -0.753271
  11 Cl:   -0.468976
Sum of atomic charges:   -0.0000000

--------------------------------
MULLIKEN REDUCED ORBITAL CHARGES
--------------------------------
  0 C s       :     3.255830  s :     3.255830
      pz      :     0.982927  p :     2.899432
      px      :     1.003216
      py      :     0.913289
      dz2     :     0.005612  d :     0.066274
      dxz     :     0.017816
      dyz     :     0.018468
      dx2y2   :     0.005967
      dxy     :     0.018411
      f0      :     0.000359  f :     0.006077
      f+1     :     0.000491
      f-1     :     0.000676
      f+2     :     0.000748
      f-2     :     0.002698
      f+3     :     0.000534
      f-3     :     0.000572
  1 N s       :     3.432054  s :     3.432054
      pz      :     1.277187  p :     3.819502
      px      :     1.273261
      py      :     1.269055
      dz2     :     0.005721  d :     0.050592
      dxz     :     0.013151
      dyz     :     0.012422
      dx2y2   :     0.006529
      dxy     :     0.012769
      f0      :     0.000132  f :     0.002266
      f+1     :     0.000179
      f-1     :     0.000212
      f+2     :     0.000233
      f-2     :     0.001155
      f+3     :     0.000170
      f-3     :     0.000185
  2 H s       :     0.844162  s :     0.844162
      pz      :     0.008186  p :     0.021243
      px      :     0.007668
      py      :     0.005389
  3 H s       :     0.802095  s :     0.802095
      pz      :     0.006661  p :     0.022347
      px      :     0.007669
      py      :     0.008017
  4 H s       :     0.802050  s :     0.802050
      pz      :     0.007089  p :     0.022358
      px      :     0.007150
      py      :     0.008118
  5 H s       :     0.697795  s :     0.697795
      pz      :     0.009493  p :     0.032865
      px      :     0.011849
      py      :     0.011524
  6 H s       :     0.694536  s :     0.694536
      pz      :     0.011496  p :     0.033107
      px      :     0.009872
      py      :     0.011739
  7 H s       :     0.694351  s :     0.694351
      pz      :     0.017291  p :     0.048563
      px      :     0.016107
      py      :     0.015165
  8 Pbs       :     3.959573  s :     3.959573
      pz      :     2.316120  p :     6.880628
      px      :     2.307828
      py      :     2.256680
      dz2     :     2.043836  d :    10.189069
      dxz     :     2.064701
      dyz     :     2.027687
      dx2y2   :     2.027618
      dxy     :     2.025228
      f0      :     0.005154  f :     0.036270
      f+1     :     0.008630
      f-1     :     0.002906
      f+2     :     0.006710
      f-2     :     0.007309
      f+3     :     0.002713
      f-3     :     0.002847
  9 Cls       :     5.959215  s :     5.959215
      pz      :     3.788768  p :    11.487407
      px      :     3.802767
      py      :     3.895872
      dz2     :     0.004416  d :     0.017387
      dxz     :     0.006888
      dyz     :     0.003026
      dx2y2   :     0.001642
      dxy     :     0.001415
      f0      :     0.000091  f :     0.000704
      f+1     :     0.000235
      f-1     :     0.000070
      f+2     :     0.000131
      f-2     :     0.000117
      f+3     :     0.000029
      f-3     :     0.000032
 10 Cls       :     5.962440  s :     5.962440
      pz      :     3.958275  p :    11.783848
      px      :     3.961091
      py      :     3.864483
      dz2     :     0.000805  d :     0.006678
      dxz     :     0.000789
      dyz     :     0.001898
      dx2y2   :     0.001454
      dxy     :     0.001732
      f0      :     0.000048  f :     0.000305
      f+1     :     0.000009
      f-1     :     0.000020
      f+2     :     0.000047
      f-2     :     0.000084
      f+3     :     0.000077
      f-3     :     0.000020
 11 Cls       :     5.959053  s :     5.959053
      pz      :     3.792913  p :    11.491986
      px      :     3.802530
      py      :     3.896543
      dz2     :     0.002536  d :     0.017234
      dxz     :     0.007289
      dyz     :     0.001423
      dx2y2   :     0.003444
      dxy     :     0.002543
      f0      :     0.000074  f :     0.000704
      f+1     :     0.000178
      f-1     :     0.000019
      f+2     :     0.000202
      f-2     :     0.000106
      f+3     :     0.000064
      f-3     :     0.000061


                     *******************************
                     * LOEWDIN POPULATION ANALYSIS *
                     *******************************

----------------------
LOEWDIN ATOMIC CHARGES
----------------------
   0 C :   -0.276128
   1 N :    0.094909
   2 H :    0.114848
   3 H :    0.134141
   4 H :    0.134023
   5 H :    0.195487
   6 H :    0.194706
   7 H :    0.113625
   8 Pb:    0.394938
   9 Cl:   -0.201126
  10 Cl:   -0.695097
  11 Cl:   -0.204325

-------------------------------
LOEWDIN REDUCED ORBITAL CHARGES
-------------------------------
  0 C s       :     2.858094  s :     2.858094
      pz      :     1.036584  p :     3.086581
      px      :     1.049057
      py      :     1.000940
      dz2     :     0.025922  d :     0.294563
      dxz     :     0.079069
      dyz     :     0.080149
      dx2y2   :     0.030608
      dxy     :     0.078815
      f0      :     0.005241  f :     0.036890
      f+1     :     0.003781
      f-1     :     0.005573
      f+2     :     0.004173
      f-2     :     0.007394
      f+3     :     0.004984
      f-3     :     0.005743
  1 N s       :     3.007655  s :     3.007655
      pz      :     1.246382  p :     3.723160
      px      :     1.242179
      py      :     1.234599
      dz2     :     0.017882  d :     0.164680
      dxz     :     0.040557
      dyz     :     0.042802
      dx2y2   :     0.019408
      dxy     :     0.044031
      f0      :     0.001540  f :     0.009597
      f+1     :     0.001121
      f-1     :     0.001395
      f+2     :     0.001049
      f-2     :     0.001711
      f+3     :     0.001283
      f-3     :     0.001498
  2 H s       :     0.823106  s :     0.823106
      pz      :     0.022915  p :     0.062046
      px      :     0.021800
      py      :     0.017332
  3 H s       :     0.802276  s :     0.802276
      pz      :     0.018783  p :     0.063583
      px      :     0.023152
      py      :     0.021648
  4 H s       :     0.802392  s :     0.802392
      pz      :     0.021501  p :     0.063585
      px      :     0.020187
      py      :     0.021897
  5 H s       :     0.708081  s :     0.708081
      pz      :     0.030896  p :     0.096431
      px      :     0.032896
      py      :     0.032639
  6 H s       :     0.707524  s :     0.707524
      pz      :     0.031990  p :     0.097769
      px      :     0.032447
      py      :     0.033333
  7 H s       :     0.721571  s :     0.721571
      pz      :     0.059275  p :     0.164804
      px      :     0.054837
      py      :     0.050692
  8 Pbs       :     3.840440  s :     3.840440
      pz      :     2.426447  p :     7.143780
      px      :     2.410622
      py      :     2.306711
      dz2     :     2.102510  d :    10.524352
      dxz     :     2.223252
      dyz     :     2.064340
      dx2y2   :     2.077221
      dxy     :     2.057029
      f0      :     0.011879  f :     0.096490
      f+1     :     0.025381
      f-1     :     0.007204
      f+2     :     0.020171
      f-2     :     0.018524
      f+3     :     0.006463
      f-3     :     0.006868
  9 Cls       :     5.782313  s :     5.782313
      pz      :     3.764407  p :    11.386227
      px      :     3.768861
      py      :     3.852960
      dz2     :     0.006921  d :     0.031065
      dxz     :     0.015282
      dyz     :     0.004733
      dx2y2   :     0.001926
      dxy     :     0.002204
      f0      :     0.000066  f :     0.001520
      f+1     :     0.000704
      f-1     :     0.000161
      f+2     :     0.000241
      f-2     :     0.000273
      f+3     :     0.000023
      f-3     :     0.000053
 10 Cls       :     5.929398  s :     5.929398
      pz      :     3.945866  p :    11.755960
      px      :     3.950065
      py      :     3.860029
      dz2     :     0.000952  d :     0.009220
      dxz     :     0.000934
      dyz     :     0.002834
      dx2y2   :     0.001913
      dxy     :     0.002588
      f0      :     0.000087  f :     0.000519
      f+1     :     0.000009
      f-1     :     0.000020
      f+2     :     0.000081
      f-2     :     0.000154
      f+3     :     0.000146
      f-3     :     0.000021
 11 Cls       :     5.782135  s :     5.782135
      pz      :     3.760655  p :    11.389709
      px      :     3.776193
      py      :     3.852860
      dz2     :     0.001908  d :     0.030962
      dxz     :     0.017167
      dyz     :     0.001858
      dx2y2   :     0.006797
      dxy     :     0.003232
      f0      :     0.000173  f :     0.001520
      f+1     :     0.000298
      f-1     :     0.000024
      f+2     :     0.000585
      f-2     :     0.000193
      f+3     :     0.000136
      f-3     :     0.000111


                      *****************************
                      * MAYER POPULATION ANALYSIS *
                      *****************************

  NA   - Mulliken gross atomic population
  ZA   - Total nuclear charge
  QA   - Mulliken gross atomic charge
  VA   - Mayer's total valence
  BVA  - Mayer's bonded valence
  FA   - Mayer's free valence

  ATOM       NA         ZA         QA         VA         BVA        FA
  0 C      6.2276     6.0000    -0.2276     3.8008     3.8008    -0.0000
  1 N      7.3044     7.0000    -0.3044     3.2854     3.2854    -0.0000
  2 H      0.8654     1.0000     0.1346     0.9604     0.9604     0.0000
  3 H      0.8244     1.0000     0.1756     0.9798     0.9798     0.0000
  4 H      0.8244     1.0000     0.1756     0.9794     0.9794    -0.0000
  5 H      0.7307     1.0000     0.2693     0.9373     0.9373    -0.0000
  6 H      0.7276     1.0000     0.2724     0.9366     0.9366     0.0000
  7 H      0.7429     1.0000     0.2571     1.0869     1.0869    -0.0000
  8 Pb    21.0655    22.0000     0.9345     1.8024     1.8024     0.0000
  9 Cl    17.4647    17.0000    -0.4647     0.9280     0.9280    -0.0000
 10 Cl    17.7533    17.0000    -0.7533     0.4441     0.4441    -0.0000
 11 Cl    17.4690    17.0000    -0.4690     0.9210     0.9210     0.0000

  Mayer bond orders larger than 0.1
B(  0-C ,  1-N ) :   0.8862 B(  0-C ,  2-H ) :   0.9631 B(  0-C ,  3-H ) :   0.9626 
B(  0-C ,  4-H ) :   0.9629 B(  1-N ,  5-H ) :   0.8956 B(  1-N ,  6-H ) :   0.8942 
B(  1-N ,  7-H ) :   0.6843 B(  7-H , 10-Cl) :   0.4017 B(  8-Pb,  9-Cl) :   0.8884 
B(  8-Pb, 11-Cl) :   0.8826 

-------
TIMINGS
-------

Total SCF time: 0 days 0 hours 4 min 49 sec 

Total time                  ....     289.700 sec
Sum of individual times     ....     273.106 sec  ( 94.3%)

Fock matrix formation       ....     267.254 sec  ( 92.3%)
  Coulomb formation         ....     205.790 sec  ( 77.0% of F)
  Split-RI-J                ....      18.186 sec  (  6.8% of F)
  Chain of spheres X        ....     203.312 sec  ( 76.1% of F)
  COS-X 1 center corr.      ....       0.000 sec  (  0.0% of F)
  XC integration            ....      61.495 sec  ( 23.0% of F)
    Basis function eval.    ....      30.951 sec  ( 50.3% of XC)
    Density eval.           ....      11.409 sec  ( 18.6% of XC)
    XC-Functional eval.     ....       3.790 sec  (  6.2% of XC)
    XC-Potential eval.      ....      14.195 sec  ( 23.1% of XC)
Diagonalization             ....       0.651 sec  (  0.2%)
Density matrix formation    ....       0.045 sec  (  0.0%)
Population analysis         ....       0.069 sec  (  0.0%)
Initial guess               ....       0.113 sec  (  0.0%)
Orbital Transformation      ....       0.000 sec  (  0.0%)
Orbital Orthonormalization  ....       0.110 sec  (  0.0%)
DIIS solution               ....       0.161 sec  (  0.1%)
SOSCF solution              ....       0.095 sec  (  0.0%)
Grid generation             ....       4.716 sec  (  1.6%)

------------------------------------------------------------------------------
                              ORCA MP2 CALCULATION
------------------------------------------------------------------------------


----------------------
RI-MP2 ENERGY+GRADIENT
----------------------
Dimension of the basis                    ...  259
Memory devoted to MP2                     ... 1000 MB   
Data format for buffers                   ... DOUBLE
Compression type for matrix containers    ... UNCOMPRESSED
Overall scaling of the MP2 energy         ...   2.700e-01 Eh
Calculating two index integrals           ... done (    0.011 sec)
Cholesky decomposition of the V-matrix    ... done
Cholesky decomposition of V**-1           ... done (    0.020 sec)

-----------------
RI-TRANSFORMATION (AUX index driven)
-----------------

Dimension of the orbital-basis         ... 259
Dimension of the aux-basis             ... 493
Transformation of internal MOs         ...    0-  45
Transformation of internal/external MOs...    0-  45 to   46- 258
Number Format for Storage              ... Double (8 Byte)
Integral mode                          ... Direct

First Phase: integral generation and transformation of MO indices
  Aux angular momentum 0               ... done (    0.320 sec)
  Aux angular momentum 1               ... done (    0.263 sec)
  Aux angular momentum 2               ... done (    0.314 sec)
  Aux angular momentum 3               ... done (    0.172 sec)
  Aux angular momentum 4               ... done (    0.163 sec)
Closing buffer VIJ ( 0.00 GB; CompressionRatio= 1.95)
Closing buffer VIA ( 0.04 GB; CompressionRatio= 1.00)
  Phase 1 completed in     1.333 sec
Second Phase: sorting and transformation of aux index

IJ-Transformation
Memory available                       ... 990 MB 
Max. # MO pairs treated in a batch     ... 46    
# of internal orbitals                 ... 46
# batches for internal orbitals        ... 1
Closing buffer IJV ( 0.00 GB; CompressionRatio= 1.00)
(ij|v) transformation done in     0.086 sec

IA-Transformation
Memory available                       ... 990 MB 
Max. # MO pairs treated in a batch     ... 46    
# of internal orbitals                 ... 46
# batches for internal orbitals        ... 1
Closing buffer IAV ( 0.04 GB; CompressionRatio= 1.00)
(ia|v) transformation done in     0.338 sec

  Phase 2 completed in     0.535 sec
RI-Integral transformation completed in     1.868 sec
Opening buffers                              ... done

Starting loop over batches of integrals:

Operator 0  - window                       ... (  0- 45)x( 46-258)
Operator 0  - Memory available             ...  1000 MB
Operator 0  - Memory needed per MO         ...   1.6 MB
Operator 0  - Number of orbitals per batch ... 46
Operator 0  - Number of batches            ... 1

OPERATOR  0   PASS   0:  MOs     0 ...   45
  Reading integrals       ... ok
  Internal MO   2
  Internal MO   5
  Internal MO   8
  Internal MO  11
  Internal MO  14
  Internal MO  17
  Internal MO  20
  Internal MO  23
  Internal MO  26
  Internal MO  29
  Internal MO  32
  Internal MO  35
  Internal MO  38
  Internal MO  41
  Internal MO  44
Closing buffer GIPV ( 0.04 GB; CompressionRatio= 1.00)
Time spent in pair loops =    39.927 sec

-----------------------------------------------
 RI-MP2 CORRELATION ENERGY:     -0.574593237 Eh
-----------------------------------------------


---------------------
MP2 DENSITY FORMATION
---------------------

Completing the external part of the density      ... done
Storing the unrelaxed density                    ... done

Calculating the xc-kernel                        ... done
Calculating G(D)                                 ... done
Completing the Lagrangian                        ... done
Solving the Z-vector equations                   ... 

------------------------------------------------------------------------------
                           ORCA CP-SCF CALCULATION
------------------------------------------------------------------------------

Input orbitals are from        ... PbMACl3_mp2_md2_3.orca.gbw
Input Perturbation             ... PbMACl3_mp2_md2_3.orca.pin.tmp
Wavefunction output            ... PbMACl3_mp2_md2_3.orca.pout.tmp
Perturbation mode              ... Real perturbation
Solver                         ... DIIS
   MaxDIIS                     ... 20
   Levelshift                  ...    3.000e-01 Eh
Max. number of iterations      ... 128
Convergence tolerance          ... 1.000e-08
Integral handling              ... Direct
COSX GridX                     ... 1
Number of perturbations        ... 1
Number of operators            ... 1
Orbital ranges used for CP-SCF:
 Operator 0:  Orbitals   0... 45  to  46...258
DFT calculation                         ... on
Exchange functional (SCF)               ... B88
Exchange functional (CP-SCF)            ... B88
   X-Alpha parameter    XAlpha (SCF)    ...  0.666667
   X-Alpha parameter    XAlpha (CP-SCF) ...  0.666667
   Becke's b parameter  XBeta (SCF)     ...  0.004200
   Becke's b parameter  XBeta (CP-SCF)  ...  0.004200
Correlation functional (SCF)            ... LYP
Correlation functional (CP-SCF)         ... LYP
 LDA part of GGA corr.  LDAOpt (SCF)    ... VWN-3
 LDA part of GGA corr.  LDAOpt (CP-SCF) ... VWN-3
Hybrid DFT                              ... on
   Exchange mixing (SCF)                ...  0.530
   Exchange mixing (CP-SCF)             ...  0.530
   GGA exch. scaling(SCF)               ...  0.470
   GGA exch. scaling (CP-SCF)           ...  0.470
   GGA corr. scaling (SCF)              ...  0.730
   GGA corr. scaling (CP-SCF)           ...  0.730
The RIJCOSX approximation is active
Variables per vector in CP-SCF ... 9798
Number of vectors sought       ... 1
Calculating the xc-kernel      ... done

Solving the CP-SCF equations by a DIIS algorithm

-----------------
CP-SCF ITERATIONS
-----------------
  Iteration   0: MaxR=  0.089927706
  Iteration   1: MaxR=  0.039950577
  Iteration   2: MaxR=  0.010336588
  Iteration   3: MaxR=  0.005483495
  Iteration   4: MaxR=  0.003281603
  Iteration   5: MaxR=  0.001663392
  Iteration   6: MaxR=  0.000766587
  Iteration   7: MaxR=  0.000261528
  Iteration   8: MaxR=  0.000137516
  Iteration   9: MaxR=  0.000064331
  Iteration  10: MaxR=  0.000032317
  Iteration  11: MaxR=  0.000016963
  Iteration  12: MaxR=  0.000008857
  Iteration  13: MaxR=  0.000004254
  Iteration  14: MaxR=  0.000001555
  Iteration  15: MaxR=  0.000000685
  Iteration  16: MaxR=  0.000000331
  Iteration  17: MaxR=  0.000000175
  Iteration  18: MaxR=  0.000000086
  Iteration  19: MaxR=  0.000000039
  Iteration  20: MaxR=  0.000000018
  Iteration  21: MaxR=  0.000000008
                              *** THE CP-SCF HAS CONVERGED *** 
done
Finalizing the relaxed density                   ... done
Transforming P to the AO basis                   ... done
Storing the relaxed density                      ... done

------------------------------------
ENERGY WEIGHTED DENSITY FINALIZATION
------------------------------------

Gathering the parts of the W-matrix              ... done
Forming the Z-density                            ... done
Transforming Z to the AO basis                   ... done
Calculating G(Z)                                 ... done
Finalizing the W-matrix                          ... done
Transforming W to the AO basis and storing       ... done
Entering the RIJONX and RIJCOSX sections
Starting the three-index derivative integrals:
Operator 0  - Memory available             ...  1000 MB
Operator 0  - Memory needed per MO         ...   1.0 MB
Operator 0  - Number of orbitals per batch ... 46
Operator 0  - Number of batches            ... 1

OPERATOR  0   PASS   0:  MOs     0 ...   45

----------------------------------
MP2 DERIVATIVE INTEGRAL GENERATION
----------------------------------


Input Correlated Electron Density   ... PbMACl3_mp2_md2_3.orca.pmp2re
Input Energy Weighted Density       ... PbMACl3_mp2_md2_3.orca.wmp2.tmp
Input SCF Electron Density          ... PbMACl3_mp2_md2_3.orca.scfp.tmp

One-Electron Terms    ...
  ECP gradient                                           ... One-Electron Terms done

-----------------------------------------------------------
MP2 COSX Grid Generation
-----------------------------------------------------------

General Integration Accuracy     IntAcc      ...  4.340
Radial Grid Type                 RadialGrid  ... Gauss-Chebyshev
Angular Grid (max. acc.)         AngularGrid ... Lebedev-302
Angular grid pruning method      GridPruning ... 3 (G Style)
Weight generation scheme         WeightScheme... Becke
Basis function cutoff            BFCut       ...    1.0000e-11
Integration weight cutoff        WCut        ...    1.0000e-14
Grids for H and He will be reduced by one unit

# of grid points (after initial pruning)     ...  57718 (   0.0 sec)
# of grid points (after weights+screening)   ...  54906 (   0.1 sec)
nearest neighbour list constructed           ...    0.0 sec
Grid point re-assignment to atoms done       ...    0.0 sec
Grid point division into batches done        ...    0.2 sec
Reduced shell lists constructed in    1.4 sec

Total number of grid points                  ...    54906
Total number of batches                      ...      864
Average number of points per batch           ...       63
Average number of grid points per atom       ...     4576
Average number of shells per batch           ...    50.48 (49.98%)
Average number of basis functions per batch  ...   129.92 (50.16%)
Average number of large shells per batch     ...    37.42 (74.13%)
Average number of large basis fcns per batch ...    95.37 (73.41%)
Maximum spatial batch extension              ...  34.50, 35.78, 31.37 au
Average spatial batch extension              ...   3.19,  3.16,  3.15 au

Overlap Fitting                  UseSFitting ... on
Two electron COSX terms .... 
Integration Timings:
Total Time                  =    66.5 sec
Basis fcn evaluation        =     0.6 sec
Density evaluation          =     0.8 sec
Integral evaluation         =    63.8 sec
K(P) evaluation             =     0.6 sec
                          .... COSX two electron terms done
COSX two-electron contribution to the gradient
     0:    -0.014340    -0.037730    -0.016856
     1:     0.041455     0.120905     0.042728
     2:     0.098268    -0.074239     0.105315
     3:    -0.105668     0.100541     0.095350
     4:     0.101701     0.101975    -0.098311
     5:    -0.122202    -0.128014     0.101514
     6:     0.107998    -0.129771    -0.116650
     7:    -0.086839     0.026062    -0.091982
     8:     0.009140    -0.026374     0.008535
     9:     0.054051     0.013142    -0.068906
    10:    -0.017833     0.025170    -0.018834
    11:    -0.064844     0.007762     0.057255
Exchange-correlation gradient    ... done
Dispersion correction            ... 
Entering the calculation of the dispersion correction...

Checking the input atom types...

Done
done

                *********************************************
                * UNRELAXED MP2 DENSITY POPULATION ANALYSIS *
                *********************************************

------------------------------------------------------------------------------
                           ORCA POPULATION ANALYSIS
------------------------------------------------------------------------------
Input electron density              ... PbMACl3_mp2_md2_3.orca.pmp2ur
BaseName (.gbw .S,...)              ... PbMACl3_mp2_md2_3.orca

                    ********************************
                    * MULLIKEN POPULATION ANALYSIS *
                    ********************************

-----------------------
MULLIKEN ATOMIC CHARGES
-----------------------
   0 C :   -0.232224
   1 N :   -0.303477
   2 H :    0.135479
   3 H :    0.176499
   4 H :    0.176545
   5 H :    0.268971
   6 H :    0.272014
   7 H :    0.255063
   8 Pb:    0.913610
   9 Cl:   -0.454085
  10 Cl:   -0.749929
  11 Cl:   -0.458466
Sum of atomic charges:   -0.0000000

--------------------------------
MULLIKEN REDUCED ORBITAL CHARGES
--------------------------------
  0 C s       :     3.254603  s :     3.254603
      pz      :     0.981572  p :     2.895568
      px      :     1.001680
      py      :     0.912317
      dz2     :     0.007627  d :     0.074845
      dxz     :     0.019380
      dyz     :     0.019947
      dx2y2   :     0.007961
      dxy     :     0.019930
      f0      :     0.000514  f :     0.007208
      f+1     :     0.000665
      f-1     :     0.000847
      f+2     :     0.000928
      f-2     :     0.002819
      f+3     :     0.000698
      f-3     :     0.000737
  1 N s       :     3.429796  s :     3.429796
      pz      :     1.273715  p :     3.809215
      px      :     1.269894
      py      :     1.265606
      dz2     :     0.007951  d :     0.061171
      dxz     :     0.015197
      dyz     :     0.014470
      dx2y2   :     0.008758
      dxy     :     0.014795
      f0      :     0.000275  f :     0.003295
      f+1     :     0.000329
      f-1     :     0.000363
      f+2     :     0.000387
      f-2     :     0.001293
      f+3     :     0.000316
      f-3     :     0.000332
  2 H s       :     0.842230  s :     0.842230
      pz      :     0.008519  p :     0.022291
      px      :     0.008005
      py      :     0.005767
  3 H s       :     0.800197  s :     0.800197
      pz      :     0.006992  p :     0.023304
      px      :     0.007992
      py      :     0.008320
  4 H s       :     0.800141  s :     0.800141
      pz      :     0.007417  p :     0.023314
      px      :     0.007477
      py      :     0.008420
  5 H s       :     0.697500  s :     0.697500
      pz      :     0.009718  p :     0.033529
      px      :     0.012045
      py      :     0.011766
  6 H s       :     0.694223  s :     0.694223
      pz      :     0.011696  p :     0.033764
      px      :     0.010090
      py      :     0.011977
  7 H s       :     0.695804  s :     0.695804
      pz      :     0.017452  p :     0.049133
      px      :     0.016281
      py      :     0.015400
  8 Pbs       :     3.938219  s :     3.938219
      pz      :     2.327716  p :     6.917570
      px      :     2.319628
      py      :     2.270226
      dz2     :     2.038061  d :    10.158707
      dxz     :     2.058111
      dyz     :     2.021754
      dx2y2   :     2.021519
      dxy     :     2.019262
      f0      :     0.010284  f :     0.071894
      f+1     :     0.013736
      f-1     :     0.007986
      f+2     :     0.011788
      f-2     :     0.012388
      f+3     :     0.007793
      f-3     :     0.007919
  9 Cls       :     5.954258  s :     5.954258
      pz      :     3.773328  p :    11.440916
      px      :     3.787027
      py      :     3.880561
      dz2     :     0.012137  d :     0.055536
      dxz     :     0.014504
      dyz     :     0.010713
      dx2y2   :     0.009206
      dxy     :     0.008976
      f0      :     0.000484  f :     0.003375
      f+1     :     0.000624
      f-1     :     0.000455
      f+2     :     0.000514
      f-2     :     0.000500
      f+3     :     0.000398
      f-3     :     0.000400
 10 Cls       :     5.958187  s :     5.958187
      pz      :     3.944927  p :    11.743648
      px      :     3.947774
      py      :     3.850947
      dz2     :     0.008497  d :     0.045168
      dxz     :     0.008453
      dyz     :     0.009620
      dx2y2   :     0.009150
      dxy     :     0.009449
      f0      :     0.000420  f :     0.002927
      f+1     :     0.000380
      f-1     :     0.000395
      f+2     :     0.000422
      f-2     :     0.000460
      f+3     :     0.000453
      f-3     :     0.000396
 11 Cls       :     5.954104  s :     5.954104
      pz      :     3.777198  p :    11.445592
      px      :     3.787156
      py      :     3.881239
      dz2     :     0.010195  d :     0.055395
      dxz     :     0.014901
      dyz     :     0.008998
      dx2y2   :     0.011079
      dxy     :     0.010222
      f0      :     0.000454  f :     0.003374
      f+1     :     0.000569
      f-1     :     0.000391
      f+2     :     0.000582
      f-2     :     0.000490
      f+3     :     0.000445
      f-3     :     0.000443


                     *******************************
                     * LOEWDIN POPULATION ANALYSIS *
                     *******************************

----------------------
LOEWDIN ATOMIC CHARGES
----------------------
   0 C :   -0.279269
   1 N :    0.093966
   2 H :    0.115512
   3 H :    0.134841
   4 H :    0.134728
   5 H :    0.195191
   6 H :    0.194435
   7 H :    0.112807
   8 Pb:    0.376517
   9 Cl:   -0.191773
  10 Cl:   -0.691868
  11 Cl:   -0.195087

-------------------------------
LOEWDIN REDUCED ORBITAL CHARGES
-------------------------------
  0 C s       :     2.857498  s :     2.857498
      pz      :     1.034269  p :     3.079674
      px      :     1.046644
      py      :     0.998761
      dz2     :     0.027719  d :     0.303460
      dxz     :     0.080872
      dyz     :     0.081912
      dx2y2   :     0.032363
      dxy     :     0.080595
      f0      :     0.005465  f :     0.038637
      f+1     :     0.003997
      f-1     :     0.005784
      f+2     :     0.004385
      f-2     :     0.007846
      f+3     :     0.005207
      f-3     :     0.005953
  1 N s       :     3.007069  s :     3.007069
      pz      :     1.242771  p :     3.712295
      px      :     1.238635
      py      :     1.230889
      dz2     :     0.019849  d :     0.175755
      dxz     :     0.042915
      dyz     :     0.045211
      dx2y2   :     0.021374
      dxy     :     0.046406
      f0      :     0.001716  f :     0.010914
      f+1     :     0.001293
      f-1     :     0.001565
      f+2     :     0.001221
      f-2     :     0.001990
      f+3     :     0.001461
      f-3     :     0.001668
  2 H s       :     0.820546  s :     0.820546
      pz      :     0.023579  p :     0.063942
      px      :     0.022432
      py      :     0.017931
  3 H s       :     0.799828  s :     0.799828
      pz      :     0.019351  p :     0.065330
      px      :     0.023763
      py      :     0.022217
  4 H s       :     0.799941  s :     0.799941
      pz      :     0.022089  p :     0.065331
      px      :     0.020773
      py      :     0.022468
  5 H s       :     0.706887  s :     0.706887
      pz      :     0.031349  p :     0.097922
      px      :     0.033362
      py      :     0.033211
  6 H s       :     0.706326  s :     0.706326
      pz      :     0.032433  p :     0.099239
      px      :     0.032908
      py      :     0.033897
  7 H s       :     0.721338  s :     0.721338
      pz      :     0.059648  p :     0.165855
      px      :     0.055210
      py      :     0.050997
  8 Pbs       :     3.820569  s :     3.820569
      pz      :     2.437177  p :     7.178825
      px      :     2.421631
      py      :     2.320016
      dz2     :     2.096427  d :    10.491877
      dxz     :     2.215343
      dyz     :     2.058307
      dx2y2   :     2.070820
      dxy     :     2.050979
      f0      :     0.016999  f :     0.132213
      f+1     :     0.030577
      f-1     :     0.012277
      f+2     :     0.025327
      f-2     :     0.023554
      f+3     :     0.011550
      f-3     :     0.011929
  9 Cls       :     5.777612  s :     5.777612
      pz      :     3.749395  p :    11.340712
      px      :     3.753456
      py      :     3.837862
      dz2     :     0.014618  d :     0.069211
      dxz     :     0.022971
      dyz     :     0.012393
      dx2y2   :     0.009479
      dxy     :     0.009749
      f0      :     0.000463  f :     0.004238
      f+1     :     0.001111
      f-1     :     0.000552
      f+2     :     0.000632
      f-2     :     0.000664
      f+3     :     0.000393
      f-3     :     0.000423
 10 Cls       :     5.924959  s :     5.924959
      pz      :     3.932557  p :    11.715903
      px      :     3.936781
      py      :     3.846564
      dz2     :     0.008679  d :     0.047848
      dxz     :     0.008640
      dyz     :     0.010557
      dx2y2   :     0.009665
      dxy     :     0.010307
      f0      :     0.000462  f :     0.003158
      f+1     :     0.000382
      f-1     :     0.000397
      f+2     :     0.000459
      f-2     :     0.000536
      f+3     :     0.000525
      f-3     :     0.000398
 11 Cls       :     5.777439  s :     5.777439
      pz      :     3.745302  p :    11.344296
      px      :     3.761233
      py      :     3.837760
      dz2     :     0.009524  d :     0.069116
      dxz     :     0.024863
      dyz     :     0.009411
      dx2y2   :     0.014437
      dxy     :     0.010881
      f0      :     0.000557  f :     0.004238
      f+1     :     0.000701
      f-1     :     0.000396
      f+2     :     0.000981
      f-2     :     0.000584
      f+3     :     0.000522
      f-3     :     0.000497


                      *****************************
                      * MAYER POPULATION ANALYSIS *
                      *****************************

  NA   - Mulliken gross atomic population
  ZA   - Total nuclear charge
  QA   - Mulliken gross atomic charge
  VA   - Mayer's total valence
  BVA  - Mayer's bonded valence
  FA   - Mayer's free valence

  ATOM       NA         ZA         QA         VA         BVA        FA
  0 C      6.2322     6.0000    -0.2322     3.8469     3.7335     0.1133
  1 N      7.3035     7.0000    -0.3035     3.3602     3.2183     0.1419
  2 H      0.8645     1.0000     0.1355     0.9636     0.9443     0.0193
  3 H      0.8235     1.0000     0.1765     0.9821     0.9640     0.0181
  4 H      0.8235     1.0000     0.1765     0.9817     0.9636     0.0181
  5 H      0.7310     1.0000     0.2690     0.9400     0.9193     0.0207
  6 H      0.7280     1.0000     0.2720     0.9392     0.9188     0.0204
  7 H      0.7449     1.0000     0.2551     1.0896     1.0672     0.0224
  8 Pb    21.0864    22.0000     0.9136     2.1198     1.7413     0.3785
  9 Cl    17.4541    17.0000    -0.4541     1.1689     0.8953     0.2736
 10 Cl    17.7499    17.0000    -0.7499     0.6830     0.4337     0.2493
 11 Cl    17.4585    17.0000    -0.4585     1.1619     0.8886     0.2733

  Mayer bond orders larger than 0.1
B(  0-C ,  1-N ) :   0.8651 B(  0-C ,  2-H ) :   0.9478 B(  0-C ,  3-H ) :   0.9477 
B(  0-C ,  4-H ) :   0.9481 B(  1-N ,  5-H ) :   0.8790 B(  1-N ,  6-H ) :   0.8778 
B(  1-N ,  7-H ) :   0.6725 B(  7-H , 10-Cl) :   0.3941 B(  8-Pb,  9-Cl) :   0.8579 
B(  8-Pb, 11-Cl) :   0.8525 


                *******************************************
                * RELAXED MP2 DENSITY POPULATION ANALYSIS *
                *******************************************

------------------------------------------------------------------------------
                           ORCA POPULATION ANALYSIS
------------------------------------------------------------------------------
Input electron density              ... PbMACl3_mp2_md2_3.orca.pmp2re
BaseName (.gbw .S,...)              ... PbMACl3_mp2_md2_3.orca

                    ********************************
                    * MULLIKEN POPULATION ANALYSIS *
                    ********************************

-----------------------
MULLIKEN ATOMIC CHARGES
-----------------------
   0 C :   -0.249699
   1 N :   -0.299003
   2 H :    0.138839
   3 H :    0.178900
   4 H :    0.178915
   5 H :    0.267087
   6 H :    0.269817
   7 H :    0.246830
   8 Pb:    0.845182
   9 Cl:   -0.419996
  10 Cl:   -0.732247
  11 Cl:   -0.424626
Sum of atomic charges:   -0.0000000

--------------------------------
MULLIKEN REDUCED ORBITAL CHARGES
--------------------------------
  0 C s       :     3.256600  s :     3.256600
      pz      :     0.988451  p :     2.915449
      px      :     1.008213
      py      :     0.918785
      dz2     :     0.007778  d :     0.070611
      dxz     :     0.017727
      dyz     :     0.018497
      dx2y2   :     0.008119
      dxy     :     0.018488
      f0      :     0.000493  f :     0.007040
      f+1     :     0.000656
      f-1     :     0.000833
      f+2     :     0.000919
      f-2     :     0.002738
      f+3     :     0.000680
      f-3     :     0.000722
  1 N s       :     3.429635  s :     3.429635
      pz      :     1.272948  p :     3.806488
      px      :     1.269436
      py      :     1.264105
      dz2     :     0.008091  d :     0.059638
      dxz     :     0.014616
      dyz     :     0.013869
      dx2y2   :     0.008877
      dxy     :     0.014185
      f0      :     0.000271  f :     0.003242
      f+1     :     0.000328
      f-1     :     0.000363
      f+2     :     0.000387
      f-2     :     0.001249
      f+3     :     0.000311
      f-3     :     0.000333
  2 H s       :     0.839207  s :     0.839207
      pz      :     0.008342  p :     0.021954
      px      :     0.007860
      py      :     0.005752
  3 H s       :     0.798203  s :     0.798203
      pz      :     0.006888  p :     0.022897
      px      :     0.007852
      py      :     0.008157
  4 H s       :     0.798177  s :     0.798177
      pz      :     0.007309  p :     0.022907
      px      :     0.007347
      py      :     0.008252
  5 H s       :     0.699760  s :     0.699760
      pz      :     0.009658  p :     0.033153
      px      :     0.011835
      py      :     0.011661
  6 H s       :     0.696799  s :     0.696799
      pz      :     0.011502  p :     0.033384
      px      :     0.010019
      py      :     0.011863
  7 H s       :     0.704527  s :     0.704527
      pz      :     0.017228  p :     0.048643
      px      :     0.016090
      py      :     0.015324
  8 Pbs       :     3.943946  s :     3.943946
      pz      :     2.350892  p :     6.989508
      px      :     2.342957
      py      :     2.295659
      dz2     :     2.037435  d :    10.151532
      dxz     :     2.053428
      dyz     :     2.021208
      dx2y2   :     2.020631
      dxy     :     2.018830
      f0      :     0.009992  f :     0.069833
      f+1     :     0.013227
      f-1     :     0.007836
      f+2     :     0.011412
      f-2     :     0.011934
      f+3     :     0.007660
      f-3     :     0.007773
  9 Cls       :     5.955841  s :     5.955841
      pz      :     3.763136  p :    11.405582
      px      :     3.774167
      py      :     3.868279
      dz2     :     0.012068  d :     0.055192
      dxz     :     0.014310
      dyz     :     0.010724
      dx2y2   :     0.009119
      dxy     :     0.008972
      f0      :     0.000487  f :     0.003380
      f+1     :     0.000622
      f-1     :     0.000457
      f+2     :     0.000513
      f-2     :     0.000501
      f+3     :     0.000399
      f-3     :     0.000401
 10 Cls       :     5.958750  s :     5.958750
      pz      :     3.940960  p :    11.725337
      px      :     3.944039
      py      :     3.840339
      dz2     :     0.008485  d :     0.045216
      dxz     :     0.008468
      dyz     :     0.009654
      dx2y2   :     0.009127
      dxy     :     0.009482
      f0      :     0.000423  f :     0.002943
      f+1     :     0.000381
      f-1     :     0.000396
      f+2     :     0.000424
      f-2     :     0.000465
      f+3     :     0.000457
      f-3     :     0.000397
 11 Cls       :     5.955664  s :     5.955664
      pz      :     3.764835  p :    11.410520
      px      :     3.776957
      py      :     3.868727
      dz2     :     0.010094  d :     0.055063
      dxz     :     0.014743
      dyz     :     0.008989
      dx2y2   :     0.011030
      dxy     :     0.010207
      f0      :     0.000455  f :     0.003379
      f+1     :     0.000570
      f-1     :     0.000391
      f+2     :     0.000580
      f-2     :     0.000492
      f+3     :     0.000446
      f-3     :     0.000445


                     *******************************
                     * LOEWDIN POPULATION ANALYSIS *
                     *******************************

----------------------
LOEWDIN ATOMIC CHARGES
----------------------
   0 C :   -0.289643
   1 N :    0.090338
   2 H :    0.117422
   3 H :    0.136307
   4 H :    0.136187
   5 H :    0.195354
   6 H :    0.194433
   7 H :    0.109624
   8 Pb:    0.323313
   9 Cl:   -0.165726
  10 Cl:   -0.678338
  11 Cl:   -0.169272

-------------------------------
LOEWDIN REDUCED ORBITAL CHARGES
-------------------------------
  0 C s       :     2.859058  s :     2.859058
      pz      :     1.038897  p :     3.093319
      px      :     1.051102
      py      :     1.003320
      dz2     :     0.027886  d :     0.298890
      dxz     :     0.079328
      dyz     :     0.080211
      dx2y2   :     0.032507
      dxy     :     0.078959
      f0      :     0.005435  f :     0.038375
      f+1     :     0.003978
      f-1     :     0.005774
      f+2     :     0.004349
      f-2     :     0.007729
      f+3     :     0.005161
      f-3     :     0.005950
  1 N s       :     3.009237  s :     3.009237
      pz      :     1.243569  p :     3.713978
      px      :     1.239738
      py      :     1.230670
      dz2     :     0.020086  d :     0.175462
      dxz     :     0.042706
      dyz     :     0.044970
      dx2y2   :     0.021594
      dxy     :     0.046107
      f0      :     0.001730  f :     0.010985
      f+1     :     0.001300
      f-1     :     0.001576
      f+2     :     0.001222
      f-2     :     0.002009
      f+3     :     0.001467
      f-3     :     0.001681
  2 H s       :     0.818458  s :     0.818458
      pz      :     0.023582  p :     0.064121
      px      :     0.022455
      py      :     0.018084
  3 H s       :     0.798342  s :     0.798342
      pz      :     0.019373  p :     0.065350
      px      :     0.023781
      py      :     0.022197
  4 H s       :     0.798464  s :     0.798464
      pz      :     0.022134  p :     0.065348
      px      :     0.020772
      py      :     0.022442
  5 H s       :     0.706806  s :     0.706806
      pz      :     0.031388  p :     0.097839
      px      :     0.033167
      py      :     0.033284
  6 H s       :     0.706453  s :     0.706453
      pz      :     0.032240  p :     0.099114
      px      :     0.032929
      py      :     0.033944
  7 H s       :     0.724497  s :     0.724497
      pz      :     0.059664  p :     0.165879
      px      :     0.055231
      py      :     0.050984
  8 Pbs       :     3.826270  s :     3.826270
      pz      :     2.455681  p :     7.239206
      px      :     2.440559
      py      :     2.342965
      dz2     :     2.095192  d :    10.482588
      dxz     :     2.210109
      dyz     :     2.057453
      dx2y2   :     2.069600
      dxy     :     2.050235
      f0      :     0.016469  f :     0.128623
      f+1     :     0.029602
      f-1     :     0.012065
      f+2     :     0.024607
      f-2     :     0.022855
      f+3     :     0.011318
      f-3     :     0.011707
  9 Cls       :     5.781000  s :     5.781000
      pz      :     3.741362  p :    11.310680
      px      :     3.742337
      py      :     3.826981
      dz2     :     0.014745  d :     0.069757
      dxz     :     0.023209
      dyz     :     0.012516
      dx2y2   :     0.009476
      dxy     :     0.009812
      f0      :     0.000470  f :     0.004288
      f+1     :     0.001128
      f-1     :     0.000556
      f+2     :     0.000642
      f-2     :     0.000672
      f+3     :     0.000395
      f-3     :     0.000426
 10 Cls       :     5.926075  s :     5.926075
      pz      :     3.929468  p :    11.701069
      px      :     3.933896
      py      :     3.837705
      dz2     :     0.008680  d :     0.048019
      dxz     :     0.008662
      dyz     :     0.010627
      dx2y2   :     0.009678
      dxy     :     0.010371
      f0      :     0.000465  f :     0.003176
      f+1     :     0.000382
      f-1     :     0.000398
      f+2     :     0.000462
      f-2     :     0.000540
      f+3     :     0.000530
      f-3     :     0.000399
 11 Cls       :     5.780799  s :     5.780799
      pz      :     3.734743  p :    11.314520
      px      :     3.753138
      py      :     3.826639
      dz2     :     0.009528  d :     0.069665
      dxz     :     0.025160
      dyz     :     0.009462
      dx2y2   :     0.014561
      dxy     :     0.010954
      f0      :     0.000561  f :     0.004288
      f+1     :     0.000715
      f-1     :     0.000397
      f+2     :     0.000996
      f-2     :     0.000591
      f+3     :     0.000527
      f-3     :     0.000501


                      *****************************
                      * MAYER POPULATION ANALYSIS *
                      *****************************

  NA   - Mulliken gross atomic population
  ZA   - Total nuclear charge
  QA   - Mulliken gross atomic charge
  VA   - Mayer's total valence
  BVA  - Mayer's bonded valence
  FA   - Mayer's free valence

  ATOM       NA         ZA         QA         VA         BVA        FA
  0 C      6.2497     6.0000    -0.2497     3.8470     3.7339     0.1130
  1 N      7.2990     7.0000    -0.2990     3.3649     3.2234     0.1415
  2 H      0.8612     1.0000     0.1388     0.9634     0.9442     0.0192
  3 H      0.8211     1.0000     0.1789     0.9830     0.9649     0.0180
  4 H      0.8211     1.0000     0.1789     0.9825     0.9645     0.0180
  5 H      0.7329     1.0000     0.2671     0.9434     0.9230     0.0204
  6 H      0.7302     1.0000     0.2698     0.9428     0.9226     0.0202
  7 H      0.7532     1.0000     0.2468     1.0954     1.0733     0.0221
  8 Pb    21.1548    22.0000     0.8452     2.2202     1.8493     0.3710
  9 Cl    17.4200    17.0000    -0.4200     1.2268     0.9565     0.2703
 10 Cl    17.7322    17.0000    -0.7322     0.7131     0.4652     0.2479
 11 Cl    17.4246    17.0000    -0.4246     1.2194     0.9494     0.2701

  Mayer bond orders larger than 0.1
B(  0-C ,  1-N ) :   0.8741 B(  0-C ,  2-H ) :   0.9443 B(  0-C ,  3-H ) :   0.9449 
B(  0-C ,  4-H ) :   0.9453 B(  1-N ,  5-H ) :   0.8766 B(  1-N ,  6-H ) :   0.8758 
B(  1-N ,  7-H ) :   0.6674 B(  7-H , 10-Cl) :   0.4048 B(  8-Pb,  9-Cl) :   0.9088 
B(  8-Pb, 11-Cl) :   0.9031 


-------
TIMINGS
-------

Total time                :  443.808 sec
Integral trafo            :    1.878 sec (  0.4%)
I/O of integrals          :    0.143 sec (  0.0%)
K(i,j) Operators          :    5.579 sec (  1.3%)
T(i,j) pair energies      :    1.054 sec (  0.2%)
V-calculation             :    0.011 sec (  0.0%)
V**(-1/2)                 :    0.020 sec (  0.0%)
Gamma(ia|P)               :    5.165 sec (  1.2%)
Gamma-Trafo               :    0.724 sec (  0.2%)
D(virtual)                :    2.352 sec (  0.5%)
D(internal)               :    3.563 sec (  0.8%)
W(virtual)                :    4.701 sec (  1.1%)
W(internal)               :   12.324 sec (  2.8%)
L(virtual)                :    3.915 sec (  0.9%)
L(internal)               :    0.208 sec (  0.0%)
G(D)                      :   10.616 sec (  2.4%)
G(Z)                      :   10.851 sec (  2.4%)
Z-Vector Solution         :  297.214 sec ( 67.0%)
Z-Vector Solution         :  297.214 sec ( 67.0%)
3-Index Derivative 
+ Separable RIJ part      :    3.397 sec (  0.8%)
2-Index Derivative 
+ Separable RIJ part      :    0.025 sec (  0.0%)
Separable Gradient (COSX) :   77.552 sec ( 17.5%)


---------------------------------------
MP2 TOTAL ENERGY:    -1669.517212282 Eh
---------------------------------------

The final MP2 gradient
  0:  -0.00340837  -0.00147602  -0.00384678
  1:  -0.00320562   0.05435463  -0.00722475
  2:   0.00229516  -0.00115114   0.00264352
  3:  -0.00123858   0.00295769   0.00650164
  4:   0.00655006   0.00321731  -0.00061930
  5:  -0.01331048  -0.01725553   0.00206311
  6:   0.00099236  -0.01579010  -0.01147684
  7:   0.01541757  -0.03841989   0.01650178
  8:  -0.00161215   0.01196628  -0.00003364
  9:   0.00639329  -0.00573685  -0.00542677
 10:  -0.00457381   0.01269220  -0.00524974
 11:  -0.00340472  -0.00597196   0.00535627

-----------------------------------
NORM OF THE MP2 GRADIENT:  0.080914
-----------------------------------

Entering the calculation of the dispersion correction...

Checking the input atom types...

Done


-------------------------------------------------------------------------------
                          DFT DISPERSION CORRECTION                            
                                                                               
                                DFTD3 V2.1  Rev 6                               
                          USING Becke-Johnson damping                          
-------------------------------------------------------------------------------
The B2PLYP functional is recognized
Active option DFTDOPT                   ...         4   

molecular C6(AA) [au] = 4942.132944 


            DFT-D V3
 parameters
 s6 scaling factor         :     0.6400 
 a1 scaling factor         :     0.3065 
 s8 scaling factor         :     0.9147 
 a2 scaling factor         :     5.0570 
 ad hoc parameters k1-k3   :    16.0000     1.3333    -4.0000 

 Edisp/kcal,au: -6.152534953777  -0.009804687502 
 E6   /kcal   :  -2.933403336 
 E8   /kcal   :  -3.219131617 
 % E8         :  52.322037040 

-------------------------   ----------------
Dispersion correction           -0.009804688
-------------------------   ----------------


-------------------------   --------------------
FINAL SINGLE POINT ENERGY     -1669.527016969746
-------------------------   --------------------


                            ***************************************
                            *     ORCA property calculations      *
                            ***************************************


  WARNING: The energy has been calculated at the MP2 level but the densities
           used in the property calculations are still SCF densities
           MP2 response densities have not been calculated 
           use %mp2 Density relaxed end
           or  %mp2 Density unrelaxed end

                                    ---------------------
                                    Active property flags
                                    ---------------------
   (+) Dipole Moment


------------------------------------------------------------------------------
                       ORCA ELECTRIC PROPERTIES CALCULATION
------------------------------------------------------------------------------

Dipole Moment Calculation                       ... on
Quadrupole Moment Calculation                   ... off
Polarizability Calculation                      ... off
GBWName                                         ... PbMACl3_mp2_md2_3.orca.gbw
Electron density file                           ... PbMACl3_mp2_md2_3.orca.scfp.tmp

-------------
DIPOLE MOMENT
-------------
                                X             Y             Z
Electronic contribution:    -30.96455    -164.45183     -27.18464
Nuclear contribution   :     33.31292     161.17084      29.57915
                        -----------------------------------------
Total Dipole Moment    :      2.34837      -3.28099       2.39451
                        -----------------------------------------
Magnitude (a.u.)       :      4.69184
Magnitude (Debye)      :     11.92572


                         *** MP2 UNRELAXED DENSITY ***

------------------------------------------------------------------------------
                       ORCA ELECTRIC PROPERTIES CALCULATION
------------------------------------------------------------------------------

Dipole Moment Calculation                       ... on
Quadrupole Moment Calculation                   ... off
Polarizability Calculation                      ... off
GBWName                                         ... PbMACl3_mp2_md2_3.orca.gbw
Electron density file                           ... PbMACl3_mp2_md2_3.orca.pmp2ur

-------------
DIPOLE MOMENT
-------------
                                X             Y             Z
Electronic contribution:    -30.97770    -164.42890     -27.19794
Nuclear contribution   :     33.31292     161.17084      29.57915
                        -----------------------------------------
Total Dipole Moment    :      2.33521      -3.25805       2.38121
                        -----------------------------------------
Magnitude (a.u.)       :      4.66244
Magnitude (Debye)      :     11.85097


                           *** MP2 RELAXED DENSITY ***

------------------------------------------------------------------------------
                       ORCA ELECTRIC PROPERTIES CALCULATION
------------------------------------------------------------------------------

Dipole Moment Calculation                       ... on
Quadrupole Moment Calculation                   ... off
Polarizability Calculation                      ... off
GBWName                                         ... PbMACl3_mp2_md2_3.orca.gbw
Electron density file                           ... PbMACl3_mp2_md2_3.orca.pmp2re

-------------
DIPOLE MOMENT
-------------
                                X             Y             Z
Electronic contribution:    -31.01973    -164.36589     -27.24099
Nuclear contribution   :     33.31292     161.17084      29.57915
                        -----------------------------------------
Total Dipole Moment    :      2.29319      -3.19505       2.33816
                        -----------------------------------------
Magnitude (a.u.)       :      4.57537
Magnitude (Debye)      :     11.62966


Timings for individual modules:

Sum of individual times         ...      743.387 sec (=  12.390 min)
GTO integral calculation        ...        1.788 sec (=   0.030 min)   0.2 %
SCF iterations                  ...      292.778 sec (=   4.880 min)  39.4 %
MP2 module                      ...      448.821 sec (=   7.480 min)  60.4 %
                             ****ORCA TERMINATED NORMALLY****
TOTAL RUN TIME: 0 days 0 hours 12 minutes 25 seconds 207 msec
