
                                 *****************
                                 * O   R   C   A *
                                 *****************

           --- An Ab Initio, DFT and Semiempirical electronic structure package ---

                  #######################################################
                  #                        -***-                        #
                  #  Department of molecular theory and spectroscopy    #
                  #              Directorship: Frank Neese              #
                  # Max Planck Institute for Chemical Energy Conversion #
                  #                  D-45470 Muelheim/Ruhr              #
                  #                       Germany                       #
                  #                                                     #
                  #                  All rights reserved                #
                  #                        -***-                        #
                  #######################################################


                         Program Version 3.0.3 - RELEASE   -


 With contributions from (in alphabetic order):
   Ute Becker             : Parallelization
   Dmytro Bykov           : SCF Hessian
   Dmitry Ganyushin       : Spin-Orbit,Spin-Spin,Magnetic field MRCI
   Andreas Hansen         : Spin unrestricted coupled pair/coupled cluster methods
   Dimitrios Liakos       : Extrapolation schemes; parallel MDCI
   Robert Izsak           : Overlap fitted RIJCOSX, COSX-SCS-MP3
   Christian Kollmar      : KDIIS, OOCD, Brueckner-CCSD(T), CCSD density
   Simone Kossmann        : Meta GGA functionals, TD-DFT gradient, OOMP2, MP2 Hessian
   Taras Petrenko         : DFT Hessian,TD-DFT gradient, ASA and ECA modules, normal mode analysis, Resonance Raman, ABS, FL, XAS/XES, NRVS
   Christoph Reimann      : Effective Core Potentials
   Michael Roemelt        : Restricted open shell CIS
   Christoph Riplinger    : Improved optimizer, TS searches, QM/MM, DLPNO-CCSD
   Barbara Sandhoefer     : DKH picture change effects
   Igor Schapiro          : Molecular dynamics
   Kantharuban Sivalingam : CASSCF convergence, NEVPT2
   Boris Wezisla          : Elementary symmetry handling
   Frank Wennmohs         : Technical directorship


 We gratefully acknowledge several colleagues who have allowed us to
 interface, adapt or use parts of their codes:
   Stefan Grimme, W. Hujo, H. Kruse, T. Risthaus : VdW corrections, initial TS optimization,
                                                   DFT functionals, gCP
   Ed Valeev                                     : LibInt (2-el integral package), F12 methods
   Garnet Chan, S. Sharma, R. Olivares           : DMRG
   Ulf Ekstrom                                   : XCFun DFT Library
   Mihaly Kallay                                 : mrcc  (arbitrary order and MRCC methods)
   Andreas Klamt, Michael Diedenhofen            : otool_cosmo (COSMO solvation model)
   Frank Weinhold                                : gennbo (NPA and NBO analysis)
   Christopher J. Cramer and Donald G. Truhlar   : smd solvation model


 Your calculation uses the libint2 library for the computation of 2-el integrals
 For citations please refer to: http://libint.valeyev.net

 This ORCA versions uses:
   CBLAS   interface :  Fast vector & matrix operations
   LAPACKE interface :  Fast linear algebra routines
   SCALAPACK package :  Parallel linear algebra routines


Your calculation utilizes the basis: Ahlrichs-TZV
Cite in your paper:
H - Kr: A. Schaefer, H. Horn and R. Ahlrichs, J. Chem. Phys. 97, 2571 (1992).

The def2-TZV basis will be loaded
Cite in your paper:
 	F. Weigend, R. Ahlrichs, Phys. Chem. Chem. Phys. 2005, 7, 3297.

Your calculation utilizes the atom-pairwise dispersion correction
with the Becke-Johnson damping scheme (D3BJ)
Cite in your paper:
S.Grimme, S.Ehrlich, L.Goerigk, J Comput Chem, (2011), 32, 1456–1465 
S.Grimme, J.Antony, S.Ehrlich and H.Krieg, J.Chem.Phys., 132, (2010), 154104 
   

================================================================================
                                        WARNINGS
                       Please study these warnings very carefully!
================================================================================

WARNING: The RI method has been chosen with no auxiliary basis (AUX or GTOAUX in BASIS block)
        Standard TZV/J expansion basis used (GTOAUX=TZV_J)

Now building the actual basis set
cite the ECPs for Pb [SD(60,MDF)] as follows:
  B. Metz, H. Stoll, M. Dolg, J. Chem. Phys. 113, 2563 (2000).

ECP parameters for Pb [SD(60,MDF)] have been obtained from:
  pseudopotential library of the Stuttgart/Cologne group
  http://www.theochem.uni-stuttgart.de/pseudopotentials/

cite the ECP basis sets for Pb [DEF2-TZVP] as follows:
  F. Weigend, R. Ahlrichs; Phys. Chem. Chem. Phys. 7, 3297(2005).

ECP basis sets for Pb [DEF2-TZVP] have been obtained from:
  Turbomole basis set library
  ftp://ftp.chemie.uni-karlsruhe.de/pub/basen/



INFO   : the flag for use of LIBINT has been found!

================================================================================
                                       INPUT FILE
================================================================================
NAME = PbMACl3_mp2_md_16.orca
|  1> ! RIJCOSX RI-B2PLYP D3BJ def2-TZVP ECP{def2-TZVP} TIGHTSCF Grid5 FinalGrid6 SlowConv MORead
|  2> %method
|  3>  RunTyp Gradient
|  4>  end
|  5> %maxcore 1000
|  6> %moinp "previous.gbw"
|  7> *xyz 0 1
|  8> C -1.997010 0.211755 -0.352967 
|  9> N -3.369510 0.315374 -0.817973 
| 10> H -3.767160 1.201060 -0.543056 
| 11> H -3.935300 -0.428390 -0.388802 
| 12> H -3.502710 0.219031 -1.837690 
| 13> H -2.150310 0.203037 0.701472 
| 14> H -1.438550 1.097060 -0.633238 
| 15> H -1.601460 -0.713550 -0.679026 
| 16> Pb -2.922480 -2.607230 -2.386460 
| 17> Cl -1.336670 -4.514160 -2.459160 
| 18> Cl -2.355990 -0.604607 -3.547640 
| 19> Cl -4.062910 -2.269120 -0.177029 
| 20> *
| 21> 
| 22>                          ****END OF INPUT****
================================================================================

                     *******************************
                     * Energy+Gradient Calculation *
                     *******************************

---------------------------------
CARTESIAN COORDINATES (ANGSTROEM)
---------------------------------
  C     -1.997010    0.211755   -0.352967
  N     -3.369510    0.315374   -0.817973
  H     -3.767160    1.201060   -0.543056
  H     -3.935300   -0.428390   -0.388802
  H     -3.502710    0.219031   -1.837690
  H     -2.150310    0.203037    0.701472
  H     -1.438550    1.097060   -0.633238
  H     -1.601460   -0.713550   -0.679026
  Pb    -2.922480   -2.607230   -2.386460
  Cl    -1.336670   -4.514160   -2.459160
  Cl    -2.355990   -0.604607   -3.547640
  Cl    -4.062910   -2.269120   -0.177029

----------------------------
CARTESIAN COORDINATES (A.U.)
----------------------------
  NO LB      ZA    FRAG    MASS        X           Y           Z
   0 C     6.0000    0    12.011         -3.773801986702079          0.400158957488495         -0.667010964311782
   1 N     7.0000    0    14.007         -6.367451105508997          0.595970489759281         -1.545744954941968
   2 H     1.0000    0     1.008         -7.118900702662782          2.269674470407459         -1.026227115382739
   3 H     1.0000    0     1.008         -7.436639254820301         -0.809539778510525         -0.734729300320850
   4 H     1.0000    0     1.008         -6.619162626547308          0.413908604838906         -3.472730819045745
   5 H     1.0000    0     1.008         -4.063497003032207          0.383684325052969          1.325589970614008
   6 H     1.0000    0     1.008         -2.718465529952417          2.073142952479648         -1.196646397592025
   7 H     1.0000    0     1.008         -3.026320814429528         -1.348414082859509         -1.283173177812012
   8 Pb   22.0000*   0   207.200  -5.522686831862180  -4.926950668143505  -4.509755829557711
   9 Cl   17.0000    0    35.453         -2.525940231428519         -8.530526124701957         -4.647138919493785
  10 Cl   17.0000    0    35.453         -4.452175874257129         -1.142541648651726         -6.704068021744389
  11 Cl   17.0000    0    35.453         -7.677787206769992         -4.288015365003391         -0.334536327761945
* core charge reduced due to ECP

--------------------------------
INTERNAL COORDINATES (ANGSTROEM)
--------------------------------
 C      0   0   0   0.000000     0.000     0.000
 N      1   0   0   1.452833     0.000     0.000
 H      2   1   0   1.009032   110.347     0.000
 H      2   1   3   1.028344   109.549   241.569
 H      2   1   3   1.032883   115.542   122.132
 H      1   2   3   1.065560   100.451    65.511
 H      1   2   3   1.083602   110.232   309.856
 H      1   2   3   1.057811   108.481   181.532
 Pb     8   1   2   2.871663   126.022     4.908
 Cl     9   8   1   2.481222   103.310   184.251
 Cl     5   2   1   2.217493   136.823    19.314
 Cl     4   2   1   1.857261   143.342   303.521

---------------------------
INTERNAL COORDINATES (A.U.)
---------------------------
 C      0   0   0   0.000000     0.000     0.000
 N      1   0   0   2.745456     0.000     0.000
 H      2   1   0   1.906793   110.347     0.000
 H      2   1   3   1.943288   109.549   241.569
 H      2   1   3   1.951866   115.542   122.132
 H      1   2   3   2.013617   100.451    65.511
 H      1   2   3   2.047712   110.232   309.856
 H      1   2   3   1.998973   108.481   181.532
 Pb     8   1   2   5.426657   126.022     4.908
 Cl     9   8   1   4.688829   103.310   184.251
 Cl     5   2   1   4.190455   136.823    19.314
 Cl     4   2   1   3.509715   143.342   303.521

---------------------
BASIS SET INFORMATION
---------------------
There are 5 groups of distinct atoms

 Group   1 Type C   : 11s6p2d1f contracted to 5s3p2d1f pattern {62111/411/11/1}
 Group   2 Type N   : 11s6p2d1f contracted to 5s3p2d1f pattern {62111/411/11/1}
 Group   3 Type H   : 5s1p contracted to 3s1p pattern {311/1}
 Group   4 Type Pb  : 10s9p8d2f contracted to 6s5p3d2f pattern {421111/33111/611/11}
 Group   5 Type Cl  : 14s9p3d1f contracted to 5s5p2d1f pattern {73211/51111/21/1}

Atom   0C    basis set group =>   1
Atom   1N    basis set group =>   2
Atom   2H    basis set group =>   3
Atom   3H    basis set group =>   3
Atom   4H    basis set group =>   3
Atom   5H    basis set group =>   3
Atom   6H    basis set group =>   3
Atom   7H    basis set group =>   3
Atom   8Pb   basis set group =>   4
Atom   9Cl   basis set group =>   5
Atom  10Cl   basis set group =>   5
Atom  11Cl   basis set group =>   5
-------------------------------
AUXILIARY BASIS SET INFORMATION
-------------------------------
There are 5 groups of distinct atoms

 Group   1 Type C   : 12s5p4d2f1g contracted to 6s4p3d1f1g pattern {711111/2111/211/2/1}
 Group   2 Type N   : 12s5p4d2f1g contracted to 6s4p3d1f1g pattern {711111/2111/211/2/1}
 Group   3 Type H   : 5s2p1d contracted to 3s1p1d pattern {311/2/1}
 Group   4 Type Pb  : 31s12p8d6f3g contracted to 31s12p8d6f3g pattern {1111111111111111111111111111111/111111111111/11111111/111111/111}
 Group   5 Type Cl  : 14s5p5d2f1g contracted to 8s4p3d1f1g pattern {71111111/2111/311/2/1}

Atom   0C    basis set group =>   1
Atom   1N    basis set group =>   2
Atom   2H    basis set group =>   3
Atom   3H    basis set group =>   3
Atom   4H    basis set group =>   3
Atom   5H    basis set group =>   3
Atom   6H    basis set group =>   3
Atom   7H    basis set group =>   3
Atom   8Pb   basis set group =>   4
Atom   9Cl   basis set group =>   5
Atom  10Cl   basis set group =>   5
Atom  11Cl   basis set group =>   5

-------------------------
ECP PARAMETER INFORMATION
-------------------------

 Group 1, Type Pb ECP SD(60,MDF) (replacing 60 core electrons, lmax=5)

Atom   8Pb   ECP group =>   1


------------------------------------------------------------------------------
                           ORCA GTO INTEGRAL CALCULATION
                           -- RI-GTO INTEGRALS CHOSEN --
------------------------------------------------------------------------------

                         BASIS SET STATISTICS AND STARTUP INFO

Gaussian basis set:
 # of primitive gaussian shells          ...  186
 # of primitive gaussian functions       ...  420
 # of contracted shells                  ...  101
 # of contracted basis functions         ...  259
 Highest angular momentum                ...    3
 Maximum contraction depth               ...    7
Auxiliary gaussian basis set:
 # of primitive gaussian shells          ...  237
 # of primitive gaussian functions       ...  643
 # of contracted shells                  ...  171
 # of contracted aux-basis functions     ...  493
 Highest angular momentum                ...    4
 Maximum contraction depth               ...    7
Ratio of auxiliary to basis functions    ...  1.90
Integral package used                  ... LIBINT
 One Electron integrals                  
   ECP integrals                         ... done
 Ordering auxiliary basis shells         ... done
 Integral threshhold             Thresh  ...  2.500e-11
 Primitive cut-off               TCut    ...  2.500e-12
 Pre-screening matrix                    ... done
 Shell pair data                         ... 
 Ordering of the shell pairs             ... done (   0.001 sec) 4414 of 5151 pairs
 Determination of significant pairs      ... done (   0.000 sec)
 Creation of shell pair data             ... done (   0.002 sec)
 Storage of shell pair data              ... done (   0.002 sec)
 Shell pair data done in (   0.004 sec)
 Computing two index integrals           ... done
 Cholesky decomposition of the V-matrix  ... done


Timings:
 Total evaluation time                   ...   1.096 sec (  0.018 min)
 One electron matrix time                ...   0.477 sec (  0.008 min) = 43.5%
 Schwartz matrix evaluation time         ...   0.335 sec (  0.006 min) = 30.6%
 Two index repulsion integral time       ...   0.010 sec (  0.000 min) =  0.9%
 Cholesky decomposition of V             ...   0.231 sec (  0.004 min) = 21.1%
 Three index repulsion integral time     ...   0.000 sec (  0.000 min) =  0.0%

-------------------------------------------------------------------------------
                                 ORCA SCF
-------------------------------------------------------------------------------

------------
SCF SETTINGS
------------
Hamiltonian:
 Density Functional     Method          .... DFT(GTOs)
 Exchange Functional    Exchange        .... B88
   X-Alpha parameter    XAlpha          ....  0.666667
   Becke's b parameter  XBeta           ....  0.004200
 Correlation Functional Correlation     .... LYP
 LDA part of GGA corr.  LDAOpt          .... VWN-3
 Gradients option       PostSCFGGA      .... off
 Hybrid DFT is turned on
   Fraction HF Exchange ScalHFX         ....  0.530000
   Scaling of DF-GGA-X  ScalDFX         ....  0.470000
   Scaling of DF-GGA-C  ScalDFC         ....  0.730000
   Scaling of DF-LDA-C  ScalLDAC        ....  0.730000
   Perturbative correction              ....  0.270000
 RI-approximation to the Coulomb term is turned on
   Number of auxiliary basis functions  .... 493
   RIJ-COSX (HFX calculated with COS-X)).... on


General Settings:
 Integral files         IntName         .... PbMACl3_mp2_md_16.orca
 Hartree-Fock type      HFTyp           .... RHF
 Total Charge           Charge          ....    0
 Multiplicity           Mult            ....    1
 Number of Electrons    NEL             ....   92
 Basis Dimension        Dim             ....  259
 Nuclear Repulsion      ENuc            ....    607.4597811226 Eh

Convergence Acceleration:
 DIIS                   CNVDIIS         .... on
   Start iteration      DIISMaxIt       ....     0
   Startup error        DIISStart       ....  0.200000
   # of expansion vecs  DIISMaxEq       ....     5
   Bias factor          DIISBfac        ....   1.050
   Max. coefficient     DIISMaxC        ....  10.000
 Newton-Raphson         CNVNR           .... off
 SOSCF                  CNVSOSCF        .... on
   Start iteration      SOSCFMaxIt      ....   150
   Startup grad/error   SOSCFStart      ....  0.001000
 Level Shifting         CNVShift        .... on
   Level shift para.    LevelShift      ....    0.2500
   Turn off err/grad.   ShiftErr        ....    0.0000
 Zerner damping         CNVZerner       .... off
 Static damping         CNVDamp         .... on
   Fraction old density DampFac         ....    0.8500
   Max. Damping (<1)    DampMax         ....    0.9800
   Min. Damping (>=0)   DampMin         ....    0.0000
   Turn off err/grad.   DampErr         ....    0.0300
 Fernandez-Rico         CNVRico         .... off

SCF Procedure:
 Maximum # iterations   MaxIter         ....   125
 SCF integral mode      SCFMode         .... Direct
   Integral package                     .... LIBINT
 Reset frequeny         DirectResetFreq ....    20
 Integral Threshold     Thresh          ....  2.500e-11 Eh
 Primitive CutOff       TCut            ....  2.500e-12 Eh

Convergence Tolerance:
 Convergence Check Mode ConvCheckMode   .... Total+1el-Energy
 Energy Change          TolE            ....  1.000e-08 Eh
 1-El. energy change                    ....  1.000e-05 Eh
 Orbital Gradient       TolG            ....  1.000e-05
 Orbital Rotation angle TolX            ....  1.000e-05
 DIIS Error             TolErr          ....  5.000e-07


Diagonalization of the overlap matrix:
Smallest eigenvalue                        ... 7.446e-04
Time for diagonalization                   ...    0.199 sec
Threshold for overlap eigenvalues          ... 1.000e-08
Number of eigenvalues below threshold      ... 0
Time for construction of square roots      ...    0.009 sec
Total time needed                          ...    0.209 sec

---------------------
INITIAL GUESS: MOREAD
---------------------
Guess MOs are being read from file: previous.gbw
Input geometry compatible with but different from current geometry
Input basis set matches current basis set (good)
MOs were renormalized
MOs were reorthogonalized (Schmidt)
                      ------------------
                      INITIAL GUESS DONE (   0.1 sec)
                      ------------------
-------------------
DFT GRID GENERATION
-------------------

General Integration Accuracy     IntAcc      ...  5.010
Radial Grid Type                 RadialGrid  ... Gauss-Chebyshev
Angular Grid (max. acc.)         AngularGrid ... Lebedev-434
Angular grid pruning method      GridPruning ... 3 (G Style)
Weight generation scheme         WeightScheme... Becke
Basis function cutoff            BFCut       ...    1.0000e-11
Integration weight cutoff        WCut        ...    1.0000e-14
Grids for H and He will be reduced by one unit

# of grid points (after initial pruning)     ... 115882 (   0.1 sec)
# of grid points (after weights+screening)   ... 108166 (   0.4 sec)
nearest neighbour list constructed           ...    0.0 sec
Grid point re-assignment to atoms done       ...    0.1 sec
Grid point division into batches done        ...    1.1 sec
Reduced shell lists constructed in    3.5 sec

Total number of grid points                  ...   108166
Total number of batches                      ...     1695
Average number of points per batch           ...       63
Average number of grid points per atom       ...     9014
Average number of shells per batch           ...    55.50 (54.95%)
Average number of basis functions per batch  ...   146.86 (56.70%)
Average number of large shells per batch     ...    42.32 (76.26%)
Average number of large basis fcns per batch ...   109.84 (74.79%)
Maximum spatial batch extension              ...  40.55, 35.83, 41.08 au
Average spatial batch extension              ...   2.50,  2.32,  2.43 au

Time for grid setup =    3.941 sec

--------------------
COSX GRID GENERATION
--------------------

General Integration Accuracy     IntAcc      ...  3.340
Radial Grid Type                 RadialGrid  ... Gauss-Chebyshev
Angular Grid (max. acc.)         AngularGrid ... Lebedev-50
Angular grid pruning method      GridPruning ... 3 (G Style)
Weight generation scheme         WeightScheme... Becke
Basis function cutoff            BFCut       ...    1.0000e-11
Integration weight cutoff        WCut        ...    1.0000e-14
Grids for H and He will be reduced by one unit

# of grid points (after initial pruning)     ...   6578 (   0.0 sec)
# of grid points (after weights+screening)   ...   6239 (   0.0 sec)
nearest neighbour list constructed           ...    0.0 sec
Grid point re-assignment to atoms done       ...    0.0 sec
Grid point division into batches done        ...    0.0 sec
Reduced shell lists constructed in    0.2 sec

Total number of grid points                  ...     6239
Total number of batches                      ...      104
Average number of points per batch           ...       59
Average number of grid points per atom       ...      520
Average number of shells per batch           ...    66.80 (66.14%)
Average number of basis functions per batch  ...   179.41 (69.27%)
Average number of large shells per batch     ...    52.91 (79.21%)
Average number of large basis fcns per batch ...   139.50 (77.76%)
Maximum spatial batch extension              ...  44.74, 25.98, 34.83 au
Average spatial batch extension              ...   7.10,  5.95,  6.82 au

Overlap Fitting                  UseSFitting ... on
Constructing numerical overlap ... done (      0.1 sec)
Inverting numerical overlap    ... done (      0.0 sec)
Obtaining analytic overlap     ... done (      0.0 sec)
Final contraction and storage  ... done (      0.0 sec)


General Integration Accuracy     IntAcc      ...  3.670
Radial Grid Type                 RadialGrid  ... Gauss-Chebyshev
Angular Grid (max. acc.)         AngularGrid ... Lebedev-50
Angular grid pruning method      GridPruning ... 3 (G Style)
Weight generation scheme         WeightScheme... Becke
Basis function cutoff            BFCut       ...    1.0000e-11
Integration weight cutoff        WCut        ...    1.0000e-14
Grids for H and He will be reduced by one unit

# of grid points (after initial pruning)     ...   8124 (   0.0 sec)
# of grid points (after weights+screening)   ...   7695 (   0.0 sec)
nearest neighbour list constructed           ...    0.0 sec
Grid point re-assignment to atoms done       ...    0.0 sec
Grid point division into batches done        ...    0.0 sec
Reduced shell lists constructed in    0.2 sec

Total number of grid points                  ...     7695
Total number of batches                      ...      126
Average number of points per batch           ...       61
Average number of grid points per atom       ...      641
Average number of shells per batch           ...    65.80 (65.14%)
Average number of basis functions per batch  ...   176.55 (68.17%)
Average number of large shells per batch     ...    51.75 (78.65%)
Average number of large basis fcns per batch ...   135.86 (76.95%)
Maximum spatial batch extension              ...  46.50, 26.86, 30.69 au
Average spatial batch extension              ...   6.51,  5.55,  6.00 au

Overlap Fitting                  UseSFitting ... on
Constructing numerical overlap ... done (      0.2 sec)
Inverting numerical overlap    ... done (      0.0 sec)
Obtaining analytic overlap     ... done (      0.0 sec)
Final contraction and storage  ... done (      0.0 sec)


General Integration Accuracy     IntAcc      ...  4.010
Radial Grid Type                 RadialGrid  ... Gauss-Chebyshev
Angular Grid (max. acc.)         AngularGrid ... Lebedev-110
Angular grid pruning method      GridPruning ... 3 (G Style)
Weight generation scheme         WeightScheme... Becke
Basis function cutoff            BFCut       ...    1.0000e-11
Integration weight cutoff        WCut        ...    1.0000e-14
Grids for H and He will be reduced by one unit

# of grid points (after initial pruning)     ...  15170 (   0.0 sec)
# of grid points (after weights+screening)   ...  14392 (   0.0 sec)
nearest neighbour list constructed           ...    0.0 sec
Grid point re-assignment to atoms done       ...    0.0 sec
Grid point division into batches done        ...    0.0 sec
Reduced shell lists constructed in    0.4 sec

Total number of grid points                  ...    14392
Total number of batches                      ...      230
Average number of points per batch           ...       62
Average number of grid points per atom       ...     1199
Average number of shells per batch           ...    62.87 (62.25%)
Average number of basis functions per batch  ...   168.28 (64.97%)
Average number of large shells per batch     ...    49.14 (78.17%)
Average number of large basis fcns per batch ...   129.28 (76.82%)
Maximum spatial batch extension              ...  48.08, 34.29, 34.29 au
Average spatial batch extension              ...   5.22,  4.62,  4.90 au

Overlap Fitting                  UseSFitting ... on
Constructing numerical overlap ... done (      0.2 sec)
Inverting numerical overlap    ... done (      0.0 sec)
Obtaining analytic overlap     ... done (      0.0 sec)
Final contraction and storage  ... done (      0.0 sec)

Time for X-Grid setup             =    1.537 sec
--------------
SCF ITERATIONS
--------------
ITER       Energy         Delta-E        Max-DP      RMS-DP      [F,P]     Damp
               ***  Starting incremental Fock matrix formation  ***
  0  -1663.7501094697   0.000000000000 0.08423346  0.00212785  0.6880639 0.8500
  1  -1664.4853011929  -0.735191723211 0.08254694  0.00190862  0.5853989 0.8500
                               ***Turning on DIIS***
  2  -1665.1112816195  -0.625980426529 0.06845709  0.00163331  0.4977936 0.8500
  3  -1665.6449482717  -0.533666652268 0.05494498  0.00138691  0.4232830 0.8500
  4  -1666.1062481556  -0.461299883872 0.04556391  0.00119805  0.3598798 0.8500
  5  -1666.5038136956  -0.397565539975 0.03849749  0.00103889  0.3059366 0.8500
  6  -1666.8487458067  -0.344932111067 0.03312932  0.00089613  0.2600616 0.8500
  7  -1667.1486151435  -0.299869336833 0.02866505  0.00076890  0.2210596 0.8500
  8  -1667.4089498405  -0.260334696979 0.02485331  0.00065731  0.1879070 0.8500
  9  -1667.6336083147  -0.224658474271 0.02126237  0.00056075  0.1597265 0.8500
 10  -1667.8268351236  -0.193226808814 0.01802796  0.00047807  0.1357724 0.8500
 11  -1667.9927750629  -0.165939939318 0.01528248  0.00040753  0.1154107 0.8500
 12  -1668.1351218797  -0.142346816865 0.01299338  0.00034735  0.0981025 0.8500
 13  -1668.2570840915  -0.121962211721 0.01106985  0.00029597  0.0833898 0.8500
 14  -1668.3614471153  -0.104363023825 0.00942610  0.00025212  0.0708834 0.8500
 15  -1668.4506519660  -0.089204850681 0.00801561  0.00021472  0.0602526 0.8500
 16  -1668.5268350324  -0.076183066389 0.00681301  0.00018288  0.0512161 0.8500
 17  -1668.5918528206  -0.065017788226 0.00579335  0.00015576  0.0435348 0.8500
 18  -1668.6473094321  -0.055456611494 0.00492914  0.00013266  0.0370056 0.8500
 19  -1668.6945867095  -0.047277277399 0.00419462  0.00011300  0.0314555 0.8500
               *** Restarting incremental Fock matrix formation ***
                                   *** Resetting DIIS ***
 20  -1668.7373683347  -0.042781625222 0.02261691  0.00061802  0.0267387 0.0000
 21  -1668.9672149629  -0.229846628244 0.00465012  0.00007918  0.0097991 0.0000
 22  -1668.9673940915  -0.000179128574 0.00192604  0.00002725  0.0046952 0.0000
                      *** Initiating the SOSCF procedure ***
                           *** Shutting down DIIS ***
                      *** Re-Reading the Fockian *** 
                      *** Removing any level shift *** 
ITER      Energy       Delta-E        Grad      Rot      Max-DP    RMS-DP
 23  -1668.96743919  -0.0000450995  0.000192  0.000192  0.000428  0.000010
               *** Restarting incremental Fock matrix formation ***
 24  -1668.96504740   0.0023917862  0.000356  0.000776  0.001452  0.000029
 25  -1668.96504720   0.0000002077  0.000046  0.000286  0.000239  0.000007
 26  -1668.96504668   0.0000005176  0.000065  0.000125  0.000161  0.000003
 27  -1668.96504693  -0.0000002461  0.000013  0.000040  0.000037  0.000001
 28  -1668.96504698  -0.0000000574  0.000004  0.000026  0.000023  0.000000
 29  -1668.96504696   0.0000000241  0.000003  0.000002  0.000005  0.000000
                  ***Gradient check signals convergence***
              ***Rediagonalizing the Fockian in SOSCF/NRSCF***

               *****************************************************
               *                     SUCCESS                       *
               *           SCF CONVERGED AFTER  30 CYCLES          *
               *****************************************************

Old exchange energy                            =    -59.274316520 Eh
New exchange energy                            =    -59.277243356 Eh
Exchange energy change after final integration =     -0.002926836 Eh
Total energy after final integration           =  -1668.967973789 Eh
Final COS-X integration done in                =    31.544 sec

----------------
TOTAL SCF ENERGY
----------------

Total Energy       :        -1668.96797379 Eh          -45414.92742 eV

Components:
Nuclear Repulsion  :          607.45978112 Eh           16529.82100 eV
Electronic Energy  :        -2276.42775491 Eh          -61944.74842 eV

One Electron Energy:        -3585.42992432 Eh          -97564.50832 eV
Two Electron Energy:         1309.00216941 Eh           35619.75990 eV

Virial components:
Potential Energy   :        -3207.36992657 Eh          -87276.97278 eV
Kinetic Energy     :         1538.40195278 Eh           41862.04536 eV
Virial Ratio       :            2.08487120


DFT components:
N(Alpha)           :       46.000039532460 electrons
N(Beta)            :       46.000039532460 electrons
N(Total)           :       92.000079064919 electrons
E(X)               :      -52.639702162611 Eh       
E(C)               :       -2.616194427284 Eh       
E(XC)              :      -55.255896589895 Eh       

---------------
SCF CONVERGENCE
---------------

  Last Energy change         ...    5.8226e-09  Tolerance :   1.0000e-08
  Last MAX-Density change    ...    6.1038e-14  Tolerance :   1.0000e-07
  Last RMS-Density change    ...    3.6177e-16  Tolerance :   5.0000e-09
  Last Orbital Gradient      ...    4.9812e-07  Tolerance :   1.0000e-05
  Last Orbital Rotation      ...    7.9091e-07  Tolerance :   1.0000e-05

             **** THE GBW FILE WAS UPDATED (PbMACl3_mp2_md_16.orca.gbw) ****
             **** DENSITY FILE WAS UPDATED (PbMACl3_mp2_md_16.orca.scfp.tmp) ****
             **** ENERGY FILE WAS UPDATED (PbMACl3_mp2_md_16.orca.en.tmp) ****
----------------
ORBITAL ENERGIES
----------------

  NO   OCC          E(Eh)            E(eV) 
   0   2.0000    -102.866258     -2799.1332 
   1   2.0000    -102.860363     -2798.9728 
   2   2.0000    -102.823852     -2797.9792 
   3   2.0000     -14.980788      -407.6480 
   4   2.0000     -10.711500      -291.4747 
   5   2.0000      -9.876196      -268.7450 
   6   2.0000      -9.870504      -268.5901 
   7   2.0000      -9.831373      -267.5253 
   8   2.0000      -7.512783      -204.4332 
   9   2.0000      -7.511412      -204.3959 
  10   2.0000      -7.511155      -204.3889 
  11   2.0000      -7.506886      -204.2728 
  12   2.0000      -7.505922      -204.2465 
  13   2.0000      -7.505506      -204.2352 
  14   2.0000      -7.468368      -203.2246 
  15   2.0000      -7.466631      -203.1774 
  16   2.0000      -7.466401      -203.1711 
  17   2.0000      -5.784462      -157.4032 
  18   2.0000      -3.557567       -96.8063 
  19   2.0000      -3.554744       -96.7295 
  20   2.0000      -3.553643       -96.6995 
  21   2.0000      -1.181689       -32.1554 
  22   2.0000      -0.971566       -26.4376 
  23   2.0000      -0.960566       -26.1383 
  24   2.0000      -0.954727       -25.9795 
  25   2.0000      -0.947317       -25.7778 
  26   2.0000      -0.945933       -25.7401 
  27   2.0000      -0.897538       -24.4232 
  28   2.0000      -0.883269       -24.0350 
  29   2.0000      -0.879487       -23.9321 
  30   2.0000      -0.839804       -22.8522 
  31   2.0000      -0.715989       -19.4830 
  32   2.0000      -0.702338       -19.1116 
  33   2.0000      -0.612791       -16.6749 
  34   2.0000      -0.563388       -15.3306 
  35   2.0000      -0.544983       -14.8297 
  36   2.0000      -0.532026       -14.4772 
  37   2.0000      -0.409112       -11.1325 
  38   2.0000      -0.393243       -10.7007 
  39   2.0000      -0.379222       -10.3192 
  40   2.0000      -0.367548       -10.0015 
  41   2.0000      -0.367284        -9.9943 
  42   2.0000      -0.363109        -9.8807 
  43   2.0000      -0.322773        -8.7831 
  44   2.0000      -0.319453        -8.6928 
  45   2.0000      -0.246006        -6.6942 
  46   0.0000      -0.026543        -0.7223 
  47   0.0000       0.010296         0.2802 
  48   0.0000       0.054082         1.4717 
  49   0.0000       0.060091         1.6352 
  50   0.0000       0.073053         1.9879 
  51   0.0000       0.093028         2.5314 
  52   0.0000       0.100718         2.7407 
  53   0.0000       0.111686         3.0391 
  54   0.0000       0.130754         3.5580 
  55   0.0000       0.147139         4.0038 
  56   0.0000       0.155158         4.2221 
  57   0.0000       0.169968         4.6251 
  58   0.0000       0.177734         4.8364 
  59   0.0000       0.214701         5.8423 
  60   0.0000       0.230702         6.2777 
  61   0.0000       0.233782         6.3615 
  62   0.0000       0.258594         7.0367 
  63   0.0000       0.261077         7.1043 
  64   0.0000       0.275442         7.4952 
  65   0.0000       0.296924         8.0797 
  66   0.0000       0.309441         8.4203 
  67   0.0000       0.315624         8.5886 
  68   0.0000       0.342073         9.3083 
  69   0.0000       0.357790         9.7360 
  70   0.0000       0.393050        10.6954 
  71   0.0000       0.409173        11.1342 
  72   0.0000       0.418707        11.3936 
  73   0.0000       0.430567        11.7163 
  74   0.0000       0.434978        11.8364 
  75   0.0000       0.450353        12.2547 
  76   0.0000       0.451356        12.2820 
  77   0.0000       0.456266        12.4156 
  78   0.0000       0.465208        12.6590 
  79   0.0000       0.471304        12.8248 
  80   0.0000       0.485449        13.2097 
  81   0.0000       0.488356        13.2889 
  82   0.0000       0.498821        13.5736 
  83   0.0000       0.509363        13.8605 
  84   0.0000       0.525723        14.3057 
  85   0.0000       0.532584        14.4923 
  86   0.0000       0.543865        14.7993 
  87   0.0000       0.549005        14.9392 
  88   0.0000       0.558759        15.2046 
  89   0.0000       0.570922        15.5356 
  90   0.0000       0.589206        16.0331 
  91   0.0000       0.593211        16.1421 
  92   0.0000       0.603804        16.4304 
  93   0.0000       0.608881        16.5685 
  94   0.0000       0.617009        16.7897 
  95   0.0000       0.624016        16.9803 
  96   0.0000       0.640121        17.4186 
  97   0.0000       0.658725        17.9248 
  98   0.0000       0.675452        18.3800 
  99   0.0000       0.738804        20.1039 
 100   0.0000       0.743055        20.2195 
 101   0.0000       0.748174        20.3588 
 102   0.0000       0.775056        21.0903 
 103   0.0000       0.795985        21.6598 
 104   0.0000       0.818426        22.2705 
 105   0.0000       0.826822        22.4990 
 106   0.0000       0.856885        23.3170 
 107   0.0000       0.866606        23.5816 
 108   0.0000       0.904798        24.6208 
 109   0.0000       0.907153        24.6849 
 110   0.0000       0.920479        25.0475 
 111   0.0000       0.930871        25.3303 
 112   0.0000       0.938238        25.5307 
 113   0.0000       0.953637        25.9498 
 114   0.0000       0.986239        26.8369 
 115   0.0000       1.006354        27.3843 
 116   0.0000       1.026840        27.9417 
 117   0.0000       1.072656        29.1885 
 118   0.0000       1.080100        29.3910 
 119   0.0000       1.103072        30.0161 
 120   0.0000       1.105126        30.0720 
 121   0.0000       1.135785        30.9063 
 122   0.0000       1.148473        31.2515 
 123   0.0000       1.188632        32.3443 
 124   0.0000       1.231343        33.5065 
 125   0.0000       1.318238        35.8711 
 126   0.0000       1.329782        36.1852 
 127   0.0000       1.338518        36.4229 
 128   0.0000       1.366799        37.1925 
 129   0.0000       1.383276        37.6408 
 130   0.0000       1.471403        40.0389 
 131   0.0000       1.546918        42.0938 
 132   0.0000       1.570057        42.7234 
 133   0.0000       1.591051        43.2947 
 134   0.0000       1.604253        43.6540 
 135   0.0000       1.655545        45.0497 
 136   0.0000       1.707653        46.4676 
 137   0.0000       1.791497        48.7491 
 138   0.0000       1.810009        49.2529 
 139   0.0000       1.834535        49.9202 
 140   0.0000       1.890921        51.4546 
 141   0.0000       1.935428        52.6657 
 142   0.0000       1.936488        52.6945 
 143   0.0000       1.948612        53.0244 
 144   0.0000       1.952658        53.1345 
 145   0.0000       1.962707        53.4080 
 146   0.0000       1.974111        53.7183 
 147   0.0000       1.986129        54.0453 
 148   0.0000       1.991371        54.1880 
 149   0.0000       1.999263        54.4027 
 150   0.0000       2.013397        54.7873 
 151   0.0000       2.039155        55.4882 
 152   0.0000       2.048955        55.7549 
 153   0.0000       2.058371        56.0111 
 154   0.0000       2.077376        56.5283 
 155   0.0000       2.097012        57.0626 
 156   0.0000       2.109853        57.4120 
 157   0.0000       2.119541        57.6756 
 158   0.0000       2.120849        57.7112 
 159   0.0000       2.134389        58.0797 
 160   0.0000       2.139705        58.2243 
 161   0.0000       2.155283        58.6482 
 162   0.0000       2.163099        58.8609 
 163   0.0000       2.176798        59.2337 
 164   0.0000       2.185118        59.4601 
 165   0.0000       2.189725        59.5854 
 166   0.0000       2.214503        60.2597 
 167   0.0000       2.227648        60.6174 
 168   0.0000       2.234817        60.8125 
 169   0.0000       2.249133        61.2020 
 170   0.0000       2.253337        61.3164 
 171   0.0000       2.262270        61.5595 
 172   0.0000       2.279839        62.0376 
 173   0.0000       2.283692        62.1424 
 174   0.0000       2.284414        62.1621 
 175   0.0000       2.296933        62.5027 
 176   0.0000       2.309910        62.8558 
 177   0.0000       2.318065        63.0778 
 178   0.0000       2.323140        63.2159 
 179   0.0000       2.345713        63.8301 
 180   0.0000       2.352979        64.0278 
 181   0.0000       2.366651        64.3998 
 182   0.0000       2.382549        64.8325 
 183   0.0000       2.394573        65.1596 
 184   0.0000       2.397343        65.2350 
 185   0.0000       2.416847        65.7658 
 186   0.0000       2.426621        66.0317 
 187   0.0000       2.431228        66.1571 
 188   0.0000       2.441231        66.4293 
 189   0.0000       2.450705        66.6871 
 190   0.0000       2.462151        66.9985 
 191   0.0000       2.464868        67.0725 
 192   0.0000       2.483678        67.5843 
 193   0.0000       2.507036        68.2199 
 194   0.0000       2.509653        68.2911 
 195   0.0000       2.526862        68.7594 
 196   0.0000       2.573544        70.0297 
 197   0.0000       2.584773        70.3353 
 198   0.0000       2.603322        70.8400 
 199   0.0000       2.643299        71.9278 
 200   0.0000       2.653213        72.1976 
 201   0.0000       2.708764        73.7092 
 202   0.0000       2.731538        74.3289 
 203   0.0000       2.768025        75.3218 
 204   0.0000       2.784348        75.7660 
 205   0.0000       2.817354        76.6641 
 206   0.0000       2.838569        77.2414 
 207   0.0000       2.855170        77.6931 
 208   0.0000       2.873065        78.1801 
 209   0.0000       2.913045        79.2680 
 210   0.0000       3.034665        82.5774 
 211   0.0000       3.055991        83.1578 
 212   0.0000       3.124014        85.0087 
 213   0.0000       3.153967        85.8238 
 214   0.0000       3.205095        87.2151 
 215   0.0000       3.308813        90.0374 
 216   0.0000       3.344639        91.0122 
 217   0.0000       3.461855        94.2019 
 218   0.0000       3.559005        96.8454 
 219   0.0000       3.597875        97.9032 
 220   0.0000       3.610026        98.2338 
 221   0.0000       3.644152        99.1624 
 222   0.0000       3.821008       103.9749 
 223   0.0000       3.919252       106.6483 
 224   0.0000       3.939161       107.1900 
 225   0.0000       4.171420       113.5101 
 226   0.0000       4.254265       115.7644 
 227   0.0000       4.469224       121.6138 
 228   0.0000       4.594524       125.0234 
 229   0.0000       4.826620       131.3390 
 230   0.0000       4.895269       133.2070 
 231   0.0000       4.948816       134.6641 
 232   0.0000       5.000560       136.0722 
 233   0.0000       5.104850       138.9100 
 234   0.0000       5.131864       139.6451 
 235   0.0000       5.160975       140.4373 
 236   0.0000       5.313649       144.5918 
 237   0.0000       5.522541       150.2760 
 238   0.0000       5.541709       150.7976 
 239   0.0000       5.887561       160.2087 
 240   0.0000      11.052526       300.7545 
 241   0.0000      11.067423       301.1599 
 242   0.0000      11.086991       301.6924 
 243   0.0000      11.093702       301.8750 
 244   0.0000      11.106741       302.2298 
 245   0.0000      11.177018       304.1421 
 246   0.0000      11.197009       304.6861 
 247   0.0000      11.229865       305.5802 
 248   0.0000      11.253758       306.2303 
 249   0.0000      22.816285       620.8627 
 250   0.0000      25.236159       686.7108 
 251   0.0000      25.415955       691.6033 
 252   0.0000      25.465297       692.9459 
 253   0.0000      32.370069       880.8344 
 254   0.0000      35.637954       969.7580 
 255   0.0000      35.795374       974.0417 
 256   0.0000      35.874703       976.2003 
 257   0.0000      35.988963       979.3095 
 258   0.0000     123.667517      3365.1642 

                    ********************************
                    * MULLIKEN POPULATION ANALYSIS *
                    ********************************

-----------------------
MULLIKEN ATOMIC CHARGES
-----------------------
   0 C :   -0.223403
   1 N :   -0.291965
   2 H :    0.267553
   3 H :    0.289113
   4 H :    0.282887
   5 H :    0.147340
   6 H :    0.157122
   7 H :    0.167513
   8 Pb:    0.790306
   9 Cl:   -0.526205
  10 Cl:   -0.521696
  11 Cl:   -0.538565
Sum of atomic charges:   -0.0000000

--------------------------------
MULLIKEN REDUCED ORBITAL CHARGES
--------------------------------
  0 C s       :     3.261111  s :     3.261111
      pz      :     1.046958  p :     2.890412
      px      :     0.740912
      py      :     1.102542
      dz2     :     0.019404  d :     0.065374
      dxz     :     0.011895
      dyz     :     0.003444
      dx2y2   :     0.013424
      dxy     :     0.017206
      f0      :     0.001272  f :     0.006507
      f+1     :     0.001187
      f-1     :     0.000052
      f+2     :     0.000821
      f-2     :     0.000263
      f+3     :     0.001707
      f-3     :     0.001205
  1 N s       :     3.428248  s :     3.428248
      pz      :     1.296226  p :     3.809545
      px      :     1.236478
      py      :     1.276841
      dz2     :     0.012878  d :     0.051740
      dxz     :     0.012136
      dyz     :     0.002573
      dx2y2   :     0.007640
      dxy     :     0.016513
      f0      :     0.000691  f :     0.002431
      f+1     :     0.000332
      f-1     :     0.000055
      f+2     :     0.000256
      f-2     :     0.000130
      f+3     :     0.000599
      f-3     :     0.000367
  2 H s       :     0.697781  s :     0.697781
      pz      :     0.007796  p :     0.034666
      px      :     0.009176
      py      :     0.017695
  3 H s       :     0.659610  s :     0.659610
      pz      :     0.009998  p :     0.051277
      px      :     0.012128
      py      :     0.029151
  4 H s       :     0.677382  s :     0.677382
      pz      :     0.026433  p :     0.039732
      px      :     0.006495
      py      :     0.006803
  5 H s       :     0.829929  s :     0.829929
      pz      :     0.014804  p :     0.022731
      px      :     0.003740
      py      :     0.004187
  6 H s       :     0.820930  s :     0.820930
      pz      :     0.004589  p :     0.021948
      px      :     0.006535
      py      :     0.010824
  7 H s       :     0.808770  s :     0.808770
      pz      :     0.005411  p :     0.023717
      px      :     0.005592
      py      :     0.012714
  8 Pbs       :     3.968259  s :     3.968259
      pz      :     2.296718  p :     6.987437
      px      :     2.362722
      py      :     2.327996
      dz2     :     2.031622  d :    10.174628
      dxz     :     2.033828
      dyz     :     2.033681
      dx2y2   :     2.038894
      dxy     :     2.036604
      f0      :     0.011465  f :     0.079370
      f+1     :     0.009954
      f-1     :     0.013293
      f+2     :     0.009132
      f-2     :     0.010697
      f+3     :     0.013363
      f-3     :     0.011466
  9 Cls       :     5.950647  s :     5.950647
      pz      :     3.915084  p :    11.555249
      px      :     3.874370
      py      :     3.765795
      dz2     :     0.003109  d :     0.019329
      dxz     :     0.001281
      dyz     :     0.002144
      dx2y2   :     0.003826
      dxy     :     0.008969
      f0      :     0.000076  f :     0.000980
      f+1     :     0.000092
      f-1     :     0.000137
      f+2     :     0.000014
      f-2     :     0.000118
      f+3     :     0.000316
      f-3     :     0.000228
 10 Cls       :     5.948353  s :     5.948353
      pz      :     3.840279  p :    11.545530
      px      :     3.904526
      py      :     3.800725
      dz2     :     0.004380  d :     0.026537
      dxz     :     0.003588
      dyz     :     0.008526
      dx2y2   :     0.005690
      dxy     :     0.004353
      f0      :     0.000148  f :     0.001277
      f+1     :     0.000068
      f-1     :     0.000199
      f+2     :     0.000305
      f-2     :     0.000197
      f+3     :     0.000190
      f-3     :     0.000170
 11 Cls       :     5.951053  s :     5.951053
      pz      :     3.836660  p :    11.560795
      px      :     3.862473
      py      :     3.861663
      dz2     :     0.008792  d :     0.025576
      dxz     :     0.006514
      dyz     :     0.003589
      dx2y2   :     0.005109
      dxy     :     0.001572
      f0      :     0.000193  f :     0.001140
      f+1     :     0.000320
      f-1     :     0.000155
      f+2     :     0.000139
      f-2     :     0.000083
      f+3     :     0.000047
      f-3     :     0.000203


                     *******************************
                     * LOEWDIN POPULATION ANALYSIS *
                     *******************************

----------------------
LOEWDIN ATOMIC CHARGES
----------------------
   0 C :   -0.284643
   1 N :    0.105318
   2 H :    0.188612
   3 H :    0.119749
   4 H :    0.167089
   5 H :    0.123957
   6 H :    0.125060
   7 H :    0.117246
   8 Pb:   -0.170986
   9 Cl:   -0.199959
  10 Cl:   -0.125490
  11 Cl:   -0.165952

-------------------------------
LOEWDIN REDUCED ORBITAL CHARGES
-------------------------------
  0 C s       :     2.837485  s :     2.837485
      pz      :     1.082339  p :     3.089165
      px      :     0.904869
      py      :     1.101957
      dz2     :     0.081149  d :     0.315287
      dxz     :     0.059043
      dyz     :     0.014417
      dx2y2   :     0.072720
      dxy     :     0.087958
      f0      :     0.005244  f :     0.042706
      f+1     :     0.007643
      f-1     :     0.000974
      f+2     :     0.008633
      f-2     :     0.004345
      f+3     :     0.008656
      f-3     :     0.007211
  1 N s       :     2.976132  s :     2.976132
      pz      :     1.245413  p :     3.728024
      px      :     1.246510
      py      :     1.236101
      dz2     :     0.046010  d :     0.179179
      dxz     :     0.038835
      dyz     :     0.010006
      dx2y2   :     0.030169
      dxy     :     0.054159
      f0      :     0.001680  f :     0.011347
      f+1     :     0.001608
      f-1     :     0.000327
      f+2     :     0.001921
      f-2     :     0.001992
      f+3     :     0.001873
      f-3     :     0.001945
  2 H s       :     0.706420  s :     0.706420
      pz      :     0.024884  p :     0.104969
      px      :     0.026090
      py      :     0.053995
  3 H s       :     0.711412  s :     0.711412
      pz      :     0.033010  p :     0.168839
      px      :     0.037520
      py      :     0.098308
  4 H s       :     0.712878  s :     0.712878
      pz      :     0.081218  p :     0.120034
      px      :     0.018874
      py      :     0.019941
  5 H s       :     0.810031  s :     0.810031
      pz      :     0.039372  p :     0.066012
      px      :     0.012308
      py      :     0.014333
  6 H s       :     0.811881  s :     0.811881
      pz      :     0.014639  p :     0.063059
      px      :     0.017633
      py      :     0.030787
  7 H s       :     0.814254  s :     0.814254
      pz      :     0.016883  p :     0.068500
      px      :     0.015073
      py      :     0.036544
  8 Pbs       :     3.687127  s :     3.687127
      pz      :     2.456120  p :     7.474035
      px      :     2.491232
      py      :     2.526684
      dz2     :     2.143076  d :    10.755561
      dxz     :     2.145406
      dyz     :     2.157025
      dx2y2   :     2.144266
      dxy     :     2.165789
      f0      :     0.035219  f :     0.254262
      f+1     :     0.038296
      f-1     :     0.038850
      f+2     :     0.035921
      f-2     :     0.030218
      f+3     :     0.043311
      f-3     :     0.032448
  9 Cls       :     5.742180  s :     5.742180
      pz      :     3.859923  p :    11.416721
      px      :     3.826671
      py      :     3.730128
      dz2     :     0.008179  d :     0.038731
      dxz     :     0.001073
      dyz     :     0.001745
      dx2y2   :     0.003239
      dxy     :     0.024497
      f0      :     0.000069  f :     0.002326
      f+1     :     0.000324
      f-1     :     0.000419
      f+2     :     0.000010
      f-2     :     0.000109
      f+3     :     0.000880
      f-3     :     0.000516
 10 Cls       :     5.696685  s :     5.696685
      pz      :     3.767557  p :    11.365706
      px      :     3.840095
      py      :     3.758054
      dz2     :     0.005207  d :     0.059311
      dxz     :     0.005644
      dyz     :     0.022625
      dx2y2   :     0.014825
      dxy     :     0.011009
      f0      :     0.000596  f :     0.003788
      f+1     :     0.000112
      f-1     :     0.000289
      f+2     :     0.001037
      f-2     :     0.000670
      f+3     :     0.000653
      f-3     :     0.000431
 11 Cls       :     5.720012  s :     5.720012
      pz      :     3.800479  p :    11.386134
      px      :     3.817339
      py      :     3.768316
      dz2     :     0.023510  d :     0.056506
      dxz     :     0.015105
      dyz     :     0.005796
      dx2y2   :     0.009909
      dxy     :     0.002186
      f0      :     0.000587  f :     0.003300
      f+1     :     0.001176
      f-1     :     0.000462
      f+2     :     0.000278
      f-2     :     0.000160
      f+3     :     0.000072
      f-3     :     0.000565


                      *****************************
                      * MAYER POPULATION ANALYSIS *
                      *****************************

  NA   - Mulliken gross atomic population
  ZA   - Total nuclear charge
  QA   - Mulliken gross atomic charge
  VA   - Mayer's total valence
  BVA  - Mayer's bonded valence
  FA   - Mayer's free valence

  ATOM       NA         ZA         QA         VA         BVA        FA
  0 C      6.2234     6.0000    -0.2234     3.8493     3.8493    -0.0000
  1 N      7.2920     7.0000    -0.2920     3.3241     3.3241     0.0000
  2 H      0.7324     1.0000     0.2676     0.9292     0.9292     0.0000
  3 H      0.7109     1.0000     0.2891     1.0029     1.0029    -0.0000
  4 H      0.7171     1.0000     0.2829     0.9741     0.9741     0.0000
  5 H      0.8527     1.0000     0.1473     0.9661     0.9661    -0.0000
  6 H      0.8429     1.0000     0.1571     0.9659     0.9659    -0.0000
  7 H      0.8325     1.0000     0.1675     0.9635     0.9635    -0.0000
  8 Pb    21.2097    22.0000     0.7903     1.9635     1.9635     0.0000
  9 Cl    17.5262    17.0000    -0.5262     0.8130     0.8130     0.0000
 10 Cl    17.5217    17.0000    -0.5217     0.7953     0.7953     0.0000
 11 Cl    17.5386    17.0000    -0.5386     0.7738     0.7738     0.0000

  Mayer bond orders larger than 0.1
B(  0-C ,  1-N ) :   0.8830 B(  0-C ,  5-H ) :   0.9638 B(  0-C ,  6-H ) :   0.9661 
B(  0-C ,  7-H ) :   0.9710 B(  1-N ,  2-H ) :   0.9042 B(  1-N ,  3-H ) :   0.7634 
B(  1-N ,  4-H ) :   0.8331 B(  3-H , 11-Cl) :   0.2363 B(  4-H , 10-Cl) :   0.1314 
B(  8-Pb,  9-Cl) :   0.7890 B(  8-Pb, 10-Cl) :   0.6388 B(  8-Pb, 11-Cl) :   0.5058 


-------
TIMINGS
-------

Total SCF time: 0 days 0 hours 10 min 17 sec 

Total time                  ....     617.104 sec
Sum of individual times     ....     584.014 sec  ( 94.6%)

Fock matrix formation       ....     576.617 sec  ( 93.4%)
  Coulomb formation         ....     469.813 sec  ( 81.5% of F)
  Split-RI-J                ....      40.540 sec  (  7.0% of F)
  Chain of spheres X        ....     460.662 sec  ( 79.9% of F)
  COS-X 1 center corr.      ....       0.000 sec  (  0.0% of F)
  XC integration            ....     106.839 sec  ( 18.5% of F)
    Basis function eval.    ....      38.124 sec  ( 35.7% of XC)
    Density eval.           ....      25.724 sec  ( 24.1% of XC)
    XC-Functional eval.     ....       6.625 sec  (  6.2% of XC)
    XC-Potential eval.      ....      33.926 sec  ( 31.8% of XC)
Diagonalization             ....       1.080 sec  (  0.2%)
Density matrix formation    ....       0.081 sec  (  0.0%)
Population analysis         ....       0.073 sec  (  0.0%)
Initial guess               ....       0.146 sec  (  0.0%)
Orbital Transformation      ....       0.000 sec  (  0.0%)
Orbital Orthonormalization  ....       0.142 sec  (  0.0%)
DIIS solution               ....       0.352 sec  (  0.1%)
SOSCF solution              ....       0.187 sec  (  0.0%)
Grid generation             ....       5.478 sec  (  0.9%)

------------------------------------------------------------------------------
                              ORCA MP2 CALCULATION
------------------------------------------------------------------------------


----------------------
RI-MP2 ENERGY+GRADIENT
----------------------
Dimension of the basis                    ...  259
Memory devoted to MP2                     ... 1000 MB   
Data format for buffers                   ... DOUBLE
Compression type for matrix containers    ... UNCOMPRESSED
Overall scaling of the MP2 energy         ...   2.700e-01 Eh
Calculating two index integrals           ... done (    0.019 sec)
Cholesky decomposition of the V-matrix    ... done
Cholesky decomposition of V**-1           ... done (    0.035 sec)

-----------------
RI-TRANSFORMATION (AUX index driven)
-----------------

Dimension of the orbital-basis         ... 259
Dimension of the aux-basis             ... 493
Transformation of internal MOs         ...    0-  45
Transformation of internal/external MOs...    0-  45 to   46- 258
Number Format for Storage              ... Double (8 Byte)
Integral mode                          ... Direct

First Phase: integral generation and transformation of MO indices
  Aux angular momentum 0               ... done (    0.626 sec)
  Aux angular momentum 1               ... done (    0.453 sec)
  Aux angular momentum 2               ... done (    0.538 sec)
  Aux angular momentum 3               ... done (    0.320 sec)
  Aux angular momentum 4               ... done (    0.295 sec)
Closing buffer VIJ ( 0.00 GB; CompressionRatio= 1.95)
Closing buffer VIA ( 0.04 GB; CompressionRatio= 1.00)
  Phase 1 completed in     2.377 sec
Second Phase: sorting and transformation of aux index

IJ-Transformation
Memory available                       ... 990 MB 
Max. # MO pairs treated in a batch     ... 46    
# of internal orbitals                 ... 46
# batches for internal orbitals        ... 1
Closing buffer IJV ( 0.00 GB; CompressionRatio= 1.00)
(ij|v) transformation done in     0.151 sec

IA-Transformation
Memory available                       ... 990 MB 
Max. # MO pairs treated in a batch     ... 46    
# of internal orbitals                 ... 46
# batches for internal orbitals        ... 1
Closing buffer IAV ( 0.04 GB; CompressionRatio= 1.00)
(ia|v) transformation done in     0.614 sec

  Phase 2 completed in     0.791 sec
RI-Integral transformation completed in     3.169 sec
Opening buffers                              ... done

Starting loop over batches of integrals:

Operator 0  - window                       ... (  0- 45)x( 46-258)
Operator 0  - Memory available             ...  1000 MB
Operator 0  - Memory needed per MO         ...   1.6 MB
Operator 0  - Number of orbitals per batch ... 46
Operator 0  - Number of batches            ... 1

OPERATOR  0   PASS   0:  MOs     0 ...   45
  Reading integrals       ... ok
  Internal MO   2
  Internal MO   5
  Internal MO   8
  Internal MO  11
  Internal MO  14
  Internal MO  17
  Internal MO  20
  Internal MO  23
  Internal MO  26
  Internal MO  29
  Internal MO  32
  Internal MO  35
  Internal MO  38
  Internal MO  41
  Internal MO  44
Closing buffer GIPV ( 0.04 GB; CompressionRatio= 1.00)
Time spent in pair loops =    69.381 sec

-----------------------------------------------
 RI-MP2 CORRELATION ENERGY:     -0.583812714 Eh
-----------------------------------------------


---------------------
MP2 DENSITY FORMATION
---------------------

Completing the external part of the density      ... done
Storing the unrelaxed density                    ... done

Calculating the xc-kernel                        ... done
Calculating G(D)                                 ... done
Completing the Lagrangian                        ... done
Solving the Z-vector equations                   ... 

------------------------------------------------------------------------------
                           ORCA CP-SCF CALCULATION
------------------------------------------------------------------------------

Input orbitals are from        ... PbMACl3_mp2_md_16.orca.gbw
Input Perturbation             ... PbMACl3_mp2_md_16.orca.pin.tmp
Wavefunction output            ... PbMACl3_mp2_md_16.orca.pout.tmp
Perturbation mode              ... Real perturbation
Solver                         ... DIIS
   MaxDIIS                     ... 20
   Levelshift                  ...    3.000e-01 Eh
Max. number of iterations      ... 128
Convergence tolerance          ... 1.000e-08
Integral handling              ... Direct
COSX GridX                     ... 1
Number of perturbations        ... 1
Number of operators            ... 1
Orbital ranges used for CP-SCF:
 Operator 0:  Orbitals   0... 45  to  46...258
DFT calculation                         ... on
Exchange functional (SCF)               ... B88
Exchange functional (CP-SCF)            ... B88
   X-Alpha parameter    XAlpha (SCF)    ...  0.666667
   X-Alpha parameter    XAlpha (CP-SCF) ...  0.666667
   Becke's b parameter  XBeta (SCF)     ...  0.004200
   Becke's b parameter  XBeta (CP-SCF)  ...  0.004200
Correlation functional (SCF)            ... LYP
Correlation functional (CP-SCF)         ... LYP
 LDA part of GGA corr.  LDAOpt (SCF)    ... VWN-3
 LDA part of GGA corr.  LDAOpt (CP-SCF) ... VWN-3
Hybrid DFT                              ... on
   Exchange mixing (SCF)                ...  0.530
   Exchange mixing (CP-SCF)             ...  0.530
   GGA exch. scaling(SCF)               ...  0.470
   GGA exch. scaling (CP-SCF)           ...  0.470
   GGA corr. scaling (SCF)              ...  0.730
   GGA corr. scaling (CP-SCF)           ...  0.730
The RIJCOSX approximation is active
Variables per vector in CP-SCF ... 9798
Number of vectors sought       ... 1
Calculating the xc-kernel      ... done

Solving the CP-SCF equations by a DIIS algorithm

-----------------
CP-SCF ITERATIONS
-----------------
  Iteration   0: MaxR=  0.088265872
  Iteration   1: MaxR=  0.041756705
  Iteration   2: MaxR=  0.012679053
  Iteration   3: MaxR=  0.005909401
  Iteration   4: MaxR=  0.003496423
  Iteration   5: MaxR=  0.001684852
  Iteration   6: MaxR=  0.000729185
  Iteration   7: MaxR=  0.000233751
  Iteration   8: MaxR=  0.000096592
  Iteration   9: MaxR=  0.000036412
  Iteration  10: MaxR=  0.000018124
  Iteration  11: MaxR=  0.000006996
  Iteration  12: MaxR=  0.000002934
  Iteration  13: MaxR=  0.000001011
  Iteration  14: MaxR=  0.000000388
  Iteration  15: MaxR=  0.000000144
  Iteration  16: MaxR=  0.000000044
  Iteration  17: MaxR=  0.000000018
  Iteration  18: MaxR=  0.000000008
                              *** THE CP-SCF HAS CONVERGED *** 
done
Finalizing the relaxed density                   ... done
Transforming P to the AO basis                   ... done
Storing the relaxed density                      ... done

------------------------------------
ENERGY WEIGHTED DENSITY FINALIZATION
------------------------------------

Gathering the parts of the W-matrix              ... done
Forming the Z-density                            ... done
Transforming Z to the AO basis                   ... done
Calculating G(Z)                                 ... done
Finalizing the W-matrix                          ... done
Transforming W to the AO basis and storing       ... done
Entering the RIJONX and RIJCOSX sections
Starting the three-index derivative integrals:
Operator 0  - Memory available             ...  1000 MB
Operator 0  - Memory needed per MO         ...   1.0 MB
Operator 0  - Number of orbitals per batch ... 46
Operator 0  - Number of batches            ... 1

OPERATOR  0   PASS   0:  MOs     0 ...   45

----------------------------------
MP2 DERIVATIVE INTEGRAL GENERATION
----------------------------------


Input Correlated Electron Density   ... PbMACl3_mp2_md_16.orca.pmp2re
Input Energy Weighted Density       ... PbMACl3_mp2_md_16.orca.wmp2.tmp
Input SCF Electron Density          ... PbMACl3_mp2_md_16.orca.scfp.tmp

One-Electron Terms    ...
  ECP gradient                                           ... One-Electron Terms done

-----------------------------------------------------------
MP2 COSX Grid Generation
-----------------------------------------------------------

General Integration Accuracy     IntAcc      ...  4.340
Radial Grid Type                 RadialGrid  ... Gauss-Chebyshev
Angular Grid (max. acc.)         AngularGrid ... Lebedev-302
Angular grid pruning method      GridPruning ... 3 (G Style)
Weight generation scheme         WeightScheme... Becke
Basis function cutoff            BFCut       ...    1.0000e-11
Integration weight cutoff        WCut        ...    1.0000e-14
Grids for H and He will be reduced by one unit

# of grid points (after initial pruning)     ...  57718 (   0.0 sec)
# of grid points (after weights+screening)   ...  54110 (   0.2 sec)
nearest neighbour list constructed           ...    0.0 sec
Grid point re-assignment to atoms done       ...    0.0 sec
Grid point division into batches done        ...    0.3 sec
Reduced shell lists constructed in    1.7 sec

Total number of grid points                  ...    54110
Total number of batches                      ...      852
Average number of points per batch           ...       63
Average number of grid points per atom       ...     4509
Average number of shells per batch           ...    57.20 (56.63%)
Average number of basis functions per batch  ...   152.00 (58.69%)
Average number of large shells per batch     ...    43.80 (76.58%)
Average number of large basis fcns per batch ...   114.30 (75.19%)
Maximum spatial batch extension              ...  47.00, 30.32, 36.86 au
Average spatial batch extension              ...   3.25,  2.85,  3.07 au

Overlap Fitting                  UseSFitting ... on
Two electron COSX terms .... 
Integration Timings:
Total Time                  =   133.1 sec
Basis fcn evaluation        =     0.6 sec
Density evaluation          =     1.6 sec
Integral evaluation         =   127.5 sec
K(P) evaluation             =     1.3 sec
                          .... COSX two electron terms done
COSX two-electron contribution to the gradient
     0:    -0.009249     0.014293    -0.038730
     1:     0.109914    -0.045829     0.021283
     2:    -0.086632     0.184122     0.059572
     3:    -0.098606    -0.107926     0.072544
     4:    -0.038057    -0.017327    -0.186126
     5:    -0.028133     0.000374     0.163897
     6:     0.088862     0.141402    -0.036287
     7:     0.062698    -0.159472    -0.052592
     8:    -0.032345     0.024421     0.006136
     9:     0.046865    -0.067523    -0.006158
    10:     0.010331     0.042033    -0.036213
    11:    -0.026061    -0.009793     0.033353
Exchange-correlation gradient    ... done
Dispersion correction            ... 
Entering the calculation of the dispersion correction...

Checking the input atom types...

Done
done

                *********************************************
                * UNRELAXED MP2 DENSITY POPULATION ANALYSIS *
                *********************************************

------------------------------------------------------------------------------
                           ORCA POPULATION ANALYSIS
------------------------------------------------------------------------------
Input electron density              ... PbMACl3_mp2_md_16.orca.pmp2ur
BaseName (.gbw .S,...)              ... PbMACl3_mp2_md_16.orca

                    ********************************
                    * MULLIKEN POPULATION ANALYSIS *
                    ********************************

-----------------------
MULLIKEN ATOMIC CHARGES
-----------------------
   0 C :   -0.228483
   1 N :   -0.291506
   2 H :    0.267717
   3 H :    0.287815
   4 H :    0.281934
   5 H :    0.148404
   6 H :    0.158185
   7 H :    0.168695
   8 Pb:    0.774236
   9 Cl:   -0.518972
  10 Cl:   -0.515444
  11 Cl:   -0.532581
Sum of atomic charges:   -0.0000000

--------------------------------
MULLIKEN REDUCED ORBITAL CHARGES
--------------------------------
  0 C s       :     3.260123  s :     3.260123
      pz      :     1.045148  p :     2.886513
      px      :     0.741055
      py      :     1.100310
      dz2     :     0.021141  d :     0.074178
      dxz     :     0.013540
      dyz     :     0.005642
      dx2y2   :     0.014925
      dxy     :     0.018931
      f0      :     0.001422  f :     0.007669
      f+1     :     0.001359
      f-1     :     0.000239
      f+2     :     0.000979
      f-2     :     0.000429
      f+3     :     0.001850
      f-3     :     0.001390
  1 N s       :     3.426365  s :     3.426365
      pz      :     1.292791  p :     3.799027
      px      :     1.232277
      py      :     1.273959
      dz2     :     0.014983  d :     0.062624
      dxz     :     0.014328
      dyz     :     0.004817
      dx2y2   :     0.009803
      dxy     :     0.018693
      f0      :     0.000835  f :     0.003490
      f+1     :     0.000488
      f-1     :     0.000206
      f+2     :     0.000407
      f-2     :     0.000281
      f+3     :     0.000748
      f-3     :     0.000526
  2 H s       :     0.696934  s :     0.696934
      pz      :     0.008052  p :     0.035349
      px      :     0.009430
      py      :     0.017866
  3 H s       :     0.660261  s :     0.660261
      pz      :     0.010257  p :     0.051924
      px      :     0.012352
      py      :     0.029315
  4 H s       :     0.677724  s :     0.677724
      pz      :     0.026458  p :     0.040341
      px      :     0.006787
      py      :     0.007095
  5 H s       :     0.827815  s :     0.827815
      pz      :     0.015088  p :     0.023781
      px      :     0.004133
      py      :     0.004561
  6 H s       :     0.818865  s :     0.818865
      pz      :     0.004947  p :     0.022950
      px      :     0.006875
      py      :     0.011128
  7 H s       :     0.806514  s :     0.806514
      pz      :     0.005804  p :     0.024791
      px      :     0.005966
      py      :     0.013020
  8 Pbs       :     3.946466  s :     3.946466
      pz      :     2.307224  p :     7.017200
      px      :     2.372499
      py      :     2.337477
      dz2     :     2.025951  d :    10.146336
      dxz     :     2.027974
      dyz     :     2.028052
      dx2y2   :     2.033275
      dxy     :     2.031084
      f0      :     0.016691  f :     0.115762
      f+1     :     0.015041
      f-1     :     0.018547
      f+2     :     0.014291
      f-2     :     0.015972
      f+3     :     0.018514
      f-3     :     0.016706
  9 Cls       :     5.945941  s :     5.945941
      pz      :     3.900568  p :    11.511466
      px      :     3.859717
      py      :     3.751181
      dz2     :     0.010743  d :     0.057883
      dxz     :     0.009017
      dyz     :     0.009857
      dx2y2   :     0.011642
      dxy     :     0.016625
      f0      :     0.000455  f :     0.003682
      f+1     :     0.000469
      f-1     :     0.000514
      f+2     :     0.000397
      f-2     :     0.000507
      f+3     :     0.000711
      f-3     :     0.000628
 10 Cls       :     5.943765  s :     5.943765
      pz      :     3.825477  p :    11.501535
      px      :     3.889826
      py      :     3.786231
      dz2     :     0.012331  d :     0.066060
      dxz     :     0.011485
      dyz     :     0.016398
      dx2y2   :     0.013566
      dxy     :     0.012280
      f0      :     0.000548  f :     0.004085
      f+1     :     0.000463
      f-1     :     0.000616
      f+2     :     0.000702
      f-2     :     0.000600
      f+3     :     0.000587
      f-3     :     0.000569
 11 Cls       :     5.946531  s :     5.946531
      pz      :     3.821964  p :    11.516566
      px      :     3.847879
      py      :     3.846722
      dz2     :     0.016763  d :     0.065517
      dxz     :     0.014396
      dyz     :     0.011720
      dx2y2   :     0.013101
      dxy     :     0.009538
      f0      :     0.000608  f :     0.003968
      f+1     :     0.000719
      f-1     :     0.000572
      f+2     :     0.000544
      f-2     :     0.000482
      f+3     :     0.000442
      f-3     :     0.000599


                     *******************************
                     * LOEWDIN POPULATION ANALYSIS *
                     *******************************

----------------------
LOEWDIN ATOMIC CHARGES
----------------------
   0 C :   -0.287740
   1 N :    0.104467
   2 H :    0.188622
   3 H :    0.119330
   4 H :    0.166577
   5 H :    0.124590
   6 H :    0.125762
   7 H :    0.117900
   8 Pb:   -0.181849
   9 Cl:   -0.194327
  10 Cl:   -0.121464
  11 Cl:   -0.161868

-------------------------------
LOEWDIN REDUCED ORBITAL CHARGES
-------------------------------
  0 C s       :     2.836884  s :     2.836884
      pz      :     1.079675  p :     3.081976
      px      :     0.903273
      py      :     1.099029
      dz2     :     0.083070  d :     0.324392
      dxz     :     0.060680
      dyz     :     0.016599
      dx2y2   :     0.074549
      dxy     :     0.089493
      f0      :     0.005565  f :     0.044488
      f+1     :     0.007861
      f-1     :     0.001196
      f+2     :     0.008868
      f-2     :     0.004552
      f+3     :     0.009016
      f-3     :     0.007430
  1 N s       :     2.975599  s :     2.975599
      pz      :     1.241911  p :     3.716790
      px      :     1.242181
      py      :     1.232698
      dz2     :     0.048368  d :     0.190434
      dxz     :     0.040925
      dyz     :     0.012275
      dx2y2   :     0.032593
      dxy     :     0.056273
      f0      :     0.001913  f :     0.012710
      f+1     :     0.001793
      f-1     :     0.000496
      f+2     :     0.002102
      f-2     :     0.002174
      f+3     :     0.002109
      f-3     :     0.002124
  2 H s       :     0.704934  s :     0.704934
      pz      :     0.025241  p :     0.106444
      px      :     0.026498
      py      :     0.054705
  3 H s       :     0.710730  s :     0.710730
      pz      :     0.033427  p :     0.169940
      px      :     0.037989
      py      :     0.098524
  4 H s       :     0.711949  s :     0.711949
      pz      :     0.081899  p :     0.121474
      px      :     0.019258
      py      :     0.020318
  5 H s       :     0.807475  s :     0.807475
      pz      :     0.040369  p :     0.067934
      px      :     0.012800
      py      :     0.014766
  6 H s       :     0.809348  s :     0.809348
      pz      :     0.015092  p :     0.064890
      px      :     0.018227
      py      :     0.031571
  7 H s       :     0.811623  s :     0.811623
      pz      :     0.017407  p :     0.070476
      px      :     0.015637
      py      :     0.037432
  8 Pbs       :     3.668928  s :     3.668928
      pz      :     2.465132  p :     7.499064
      px      :     2.499746
      py      :     2.534186
      dz2     :     2.136888  d :    10.723806
      dxz     :     2.138669
      dyz     :     2.150678
      dx2y2   :     2.137983
      dxy     :     2.159588
      f0      :     0.040361  f :     0.290051
      f+1     :     0.043276
      f-1     :     0.043992
      f+2     :     0.040970
      f-2     :     0.035480
      f+3     :     0.048335
      f-3     :     0.037637
  9 Cls       :     5.737714  s :     5.737714
      pz      :     3.845719  p :    11.374241
      px      :     3.812476
      py      :     3.716046
      dz2     :     0.015842  d :     0.077278
      dxz     :     0.008788
      dyz     :     0.009419
      dx2y2   :     0.011007
      dxy     :     0.032222
      f0      :     0.000452  f :     0.005094
      f+1     :     0.000707
      f-1     :     0.000807
      f+2     :     0.000394
      f-2     :     0.000506
      f+3     :     0.001299
      f-3     :     0.000929
 10 Cls       :     5.692437  s :     5.692437
      pz      :     3.753437  p :    11.323498
      px      :     3.825900
      py      :     3.744161
      dz2     :     0.013123  d :     0.098831
      dxz     :     0.013548
      dyz     :     0.030570
      dx2y2   :     0.022712
      dxy     :     0.018877
      f0      :     0.001008  f :     0.006698
      f+1     :     0.000511
      f-1     :     0.000723
      f+2     :     0.001461
      f-2     :     0.001087
      f+3     :     0.001063
      f-3     :     0.000846
 11 Cls       :     5.715676  s :     5.715676
      pz      :     3.786308  p :    11.343677
      px      :     3.803165
      py      :     3.754204
      dz2     :     0.031379  d :     0.096317
      dxz     :     0.023018
      dyz     :     0.013868
      dx2y2   :     0.017863
      dxy     :     0.010188
      f0      :     0.001012  f :     0.006198
      f+1     :     0.001599
      f-1     :     0.000887
      f+2     :     0.000692
      f-2     :     0.000565
      f+3     :     0.000473
      f-3     :     0.000968


                      *****************************
                      * MAYER POPULATION ANALYSIS *
                      *****************************

  NA   - Mulliken gross atomic population
  ZA   - Total nuclear charge
  QA   - Mulliken gross atomic charge
  VA   - Mayer's total valence
  BVA  - Mayer's bonded valence
  FA   - Mayer's free valence

  ATOM       NA         ZA         QA         VA         BVA        FA
  0 C      6.2285     6.0000    -0.2285     3.8954     3.7816     0.1137
  1 N      7.2915     7.0000    -0.2915     3.3974     3.2584     0.1390
  2 H      0.7323     1.0000     0.2677     0.9312     0.9129     0.0183
  3 H      0.7122     1.0000     0.2878     1.0052     0.9849     0.0203
  4 H      0.7181     1.0000     0.2819     0.9766     0.9564     0.0202
  5 H      0.8516     1.0000     0.1484     0.9689     0.9504     0.0185
  6 H      0.8418     1.0000     0.1582     0.9684     0.9503     0.0182
  7 H      0.8313     1.0000     0.1687     0.9659     0.9484     0.0175
  8 Pb    21.2258    22.0000     0.7742     2.2836     1.9042     0.3794
  9 Cl    17.5190    17.0000    -0.5190     1.0509     0.7867     0.2642
 10 Cl    17.5154    17.0000    -0.5154     1.0330     0.7710     0.2620
 11 Cl    17.5326    17.0000    -0.5326     1.0125     0.7509     0.2616

  Mayer bond orders larger than 0.1
B(  0-C ,  1-N ) :   0.8621 B(  0-C ,  5-H ) :   0.9488 B(  0-C ,  6-H ) :   0.9513 
B(  0-C ,  7-H ) :   0.9562 B(  1-N ,  2-H ) :   0.8889 B(  1-N ,  3-H ) :   0.7505 
B(  1-N ,  4-H ) :   0.8184 B(  3-H , 11-Cl) :   0.2320 B(  4-H , 10-Cl) :   0.1289 
B(  8-Pb,  9-Cl) :   0.7645 B(  8-Pb, 10-Cl) :   0.6195 B(  8-Pb, 11-Cl) :   0.4906 



                *******************************************
                * RELAXED MP2 DENSITY POPULATION ANALYSIS *
                *******************************************

------------------------------------------------------------------------------
                           ORCA POPULATION ANALYSIS
------------------------------------------------------------------------------
Input electron density              ... PbMACl3_mp2_md_16.orca.pmp2re
BaseName (.gbw .S,...)              ... PbMACl3_mp2_md_16.orca

                    ********************************
                    * MULLIKEN POPULATION ANALYSIS *
                    ********************************

-----------------------
MULLIKEN ATOMIC CHARGES
-----------------------
   0 C :   -0.250522
   1 N :   -0.286939
   2 H :    0.266482
   3 H :    0.279113
   4 H :    0.275664
   5 H :    0.152128
   6 H :    0.161398
   7 H :    0.176314
   8 Pb:    0.717718
   9 Cl:   -0.493378
  10 Cl:   -0.490603
  11 Cl:   -0.507374
Sum of atomic charges:   -0.0000000

--------------------------------
MULLIKEN REDUCED ORBITAL CHARGES
--------------------------------
  0 C s       :     3.264640  s :     3.264640
      pz      :     1.051160  p :     2.908121
      px      :     0.748300
      py      :     1.108661
      dz2     :     0.019596  d :     0.070257
      dxz     :     0.013160
      dyz     :     0.005344
      dx2y2   :     0.014056
      dxy     :     0.018101
      f0      :     0.001385  f :     0.007504
      f+1     :     0.001339
      f-1     :     0.000238
      f+2     :     0.000950
      f-2     :     0.000420
      f+3     :     0.001799
      f-3     :     0.001373
  1 N s       :     3.427415  s :     3.427415
      pz      :     1.293292  p :     3.794850
      px      :     1.227984
      py      :     1.273574
      dz2     :     0.014430  d :     0.061243
      dxz     :     0.014220
      dyz     :     0.004667
      dx2y2   :     0.009325
      dxy     :     0.018601
      f0      :     0.000809  f :     0.003431
      f+1     :     0.000486
      f-1     :     0.000204
      f+2     :     0.000399
      f-2     :     0.000282
      f+3     :     0.000724
      f-3     :     0.000527
  2 H s       :     0.698541  s :     0.698541
      pz      :     0.008108  p :     0.034977
      px      :     0.009372
      py      :     0.017496
  3 H s       :     0.669468  s :     0.669468
      pz      :     0.010269  p :     0.051419
      px      :     0.012217
      py      :     0.028932
  4 H s       :     0.684393  s :     0.684393
      pz      :     0.025912  p :     0.039943
      px      :     0.006838
      py      :     0.007193
  5 H s       :     0.824464  s :     0.824464
      pz      :     0.014544  p :     0.023409
      px      :     0.004216
      py      :     0.004648
  6 H s       :     0.816024  s :     0.816024
      pz      :     0.005000  p :     0.022578
      px      :     0.006790
      py      :     0.010788
  7 H s       :     0.799221  s :     0.799221
      pz      :     0.005863  p :     0.024464
      px      :     0.005933
      py      :     0.012668
  8 Pbs       :     3.955817  s :     3.955817
      pz      :     2.327529  p :     7.067216
      px      :     2.381922
      py      :     2.357765
      dz2     :     2.025177  d :    10.145684
      dxz     :     2.027995
      dyz     :     2.028744
      dx2y2   :     2.033660
      dxy     :     2.030108
      f0      :     0.016383  f :     0.113565
      f+1     :     0.014642
      f-1     :     0.018271
      f+2     :     0.014052
      f-2     :     0.015752
      f+3     :     0.018095
      f-3     :     0.016370
  9 Cls       :     5.946904  s :     5.946904
      pz      :     3.892106  p :    11.485011
      px      :     3.850411
      py      :     3.742494
      dz2     :     0.010731  d :     0.057773
      dxz     :     0.009027
      dyz     :     0.009828
      dx2y2   :     0.011547
      dxy     :     0.016641
      f0      :     0.000458  f :     0.003690
      f+1     :     0.000469
      f-1     :     0.000513
      f+2     :     0.000398
      f-2     :     0.000512
      f+3     :     0.000708
      f-3     :     0.000633
 10 Cls       :     5.944222  s :     5.944222
      pz      :     3.816567  p :    11.475917
      px      :     3.880925
      py      :     3.778425
      dz2     :     0.012365  d :     0.066368
      dxz     :     0.011544
      dyz     :     0.016352
      dx2y2   :     0.013648
      dxy     :     0.012458
      f0      :     0.000548  f :     0.004097
      f+1     :     0.000465
      f-1     :     0.000622
      f+2     :     0.000700
      f-2     :     0.000603
      f+3     :     0.000588
      f-3     :     0.000572
 11 Cls       :     5.947009  s :     5.947009
      pz      :     3.814544  p :    11.490353
      px      :     3.840991
      py      :     3.834818
      dz2     :     0.017041  d :     0.066022
      dxz     :     0.014289
      dyz     :     0.011812
      dx2y2   :     0.013276
      dxy     :     0.009604
      f0      :     0.000610  f :     0.003990
      f+1     :     0.000717
      f-1     :     0.000579
      f+2     :     0.000547
      f-2     :     0.000485
      f+3     :     0.000444
      f-3     :     0.000608


                     *******************************
                     * LOEWDIN POPULATION ANALYSIS *
                     *******************************

----------------------
LOEWDIN ATOMIC CHARGES
----------------------
   0 C :   -0.297705
   1 N :    0.100597
   2 H :    0.188986
   3 H :    0.117144
   4 H :    0.165146
   5 H :    0.126404
   6 H :    0.127519
   7 H :    0.120385
   8 Pb:   -0.212782
   9 Cl:   -0.177805
  10 Cl:   -0.108964
  11 Cl:   -0.148924

-------------------------------
LOEWDIN REDUCED ORBITAL CHARGES
-------------------------------
  0 C s       :     2.838682  s :     2.838682
      pz      :     1.083831  p :     3.095127
      px      :     0.908029
      py      :     1.103267
      dz2     :     0.081453  d :     0.319693
      dxz     :     0.060141
      dyz     :     0.016260
      dx2y2   :     0.073328
      dxy     :     0.088512
      f0      :     0.005515  f :     0.044203
      f+1     :     0.007811
      f-1     :     0.001190
      f+2     :     0.008819
      f-2     :     0.004549
      f+3     :     0.008944
      f-3     :     0.007375
  1 N s       :     2.977343  s :     2.977343
      pz      :     1.243868  p :     3.718668
      px      :     1.240948
      py      :     1.233852
      dz2     :     0.048231  d :     0.190615
      dxz     :     0.041081
      dyz     :     0.012328
      dx2y2   :     0.032436
      dxy     :     0.056539
      f0      :     0.001924  f :     0.012777
      f+1     :     0.001787
      f-1     :     0.000496
      f+2     :     0.002120
      f-2     :     0.002197
      f+3     :     0.002123
      f-3     :     0.002129
  2 H s       :     0.704648  s :     0.704648
      pz      :     0.025377  p :     0.106366
      px      :     0.026474
      py      :     0.054515
  3 H s       :     0.713213  s :     0.713213
      pz      :     0.033509  p :     0.169644
      px      :     0.037928
      py      :     0.098206
  4 H s       :     0.713332  s :     0.713332
      pz      :     0.081788  p :     0.121522
      px      :     0.019287
      py      :     0.020447
  5 H s       :     0.805427  s :     0.805427
      pz      :     0.040154  p :     0.068168
      px      :     0.013013
      py      :     0.015002
  6 H s       :     0.807451  s :     0.807451
      pz      :     0.015259  p :     0.065030
      px      :     0.018327
      py      :     0.031444
  7 H s       :     0.808699  s :     0.808699
      pz      :     0.017624  p :     0.070916
      px      :     0.015778
      py      :     0.037514
  8 Pbs       :     3.679107  s :     3.679107
      pz      :     2.478393  p :     7.529845
      px      :     2.504529
      py      :     2.546923
      dz2     :     2.135058  d :    10.716979
      dxz     :     2.137236
      dyz     :     2.149903
      dx2y2   :     2.137532
      dxy     :     2.157251
      f0      :     0.039987  f :     0.286851
      f+1     :     0.042698
      f-1     :     0.043552
      f+2     :     0.040489
      f-2     :     0.035069
      f+3     :     0.047912
      f-3     :     0.037143
  9 Cls       :     5.740895  s :     5.740895
      pz      :     3.838723  p :    11.353534
      px      :     3.805030
      py      :     3.709780
      dz2     :     0.016033  d :     0.078201
      dxz     :     0.008841
      dyz     :     0.009467
      dx2y2   :     0.011050
      dxy     :     0.032810
      f0      :     0.000458  f :     0.005175
      f+1     :     0.000715
      f-1     :     0.000821
      f+2     :     0.000395
      f-2     :     0.000514
      f+3     :     0.001334
      f-3     :     0.000939
 10 Cls       :     5.695757  s :     5.695757
      pz      :     3.747195  p :    11.305893
      px      :     3.819161
      py      :     3.739537
      dz2     :     0.013208  d :     0.100492
      dxz     :     0.013723
      dyz     :     0.031257
      dx2y2   :     0.023228
      dxy     :     0.019076
      f0      :     0.001023  f :     0.006821
      f+1     :     0.000516
      f-1     :     0.000741
      f+2     :     0.001501
      f-2     :     0.001102
      f+3     :     0.001070
      f-3     :     0.000868
 11 Cls       :     5.718837  s :     5.718837
      pz      :     3.781262  p :    11.326159
      px      :     3.798419
      py      :     3.746478
      dz2     :     0.031726  d :     0.097646
      dxz     :     0.023433
      dyz     :     0.014032
      dx2y2   :     0.018166
      dxy     :     0.010290
      f0      :     0.001016  f :     0.006282
      f+1     :     0.001633
      f-1     :     0.000898
      f+2     :     0.000706
      f-2     :     0.000573
      f+3     :     0.000475
      f-3     :     0.000979


                      *****************************
                      * MAYER POPULATION ANALYSIS *
                      *****************************

  NA   - Mulliken gross atomic population
  ZA   - Total nuclear charge
  QA   - Mulliken gross atomic charge
  VA   - Mayer's total valence
  BVA  - Mayer's bonded valence
  FA   - Mayer's free valence

  ATOM       NA         ZA         QA         VA         BVA        FA
  0 C      6.2505     6.0000    -0.2505     3.8953     3.7818     0.1136
  1 N      7.2869     7.0000    -0.2869     3.4010     3.2624     0.1386
  2 H      0.7335     1.0000     0.2665     0.9317     0.9134     0.0183
  3 H      0.7209     1.0000     0.2791     1.0130     0.9928     0.0202
  4 H      0.7243     1.0000     0.2757     0.9837     0.9636     0.0201
  5 H      0.8479     1.0000     0.1521     0.9681     0.9498     0.0184
  6 H      0.8386     1.0000     0.1614     0.9677     0.9496     0.0181
  7 H      0.8237     1.0000     0.1763     0.9660     0.9487     0.0173
  8 Pb    21.2823    22.0000     0.7177     2.3731     2.0000     0.3731
  9 Cl    17.4934    17.0000    -0.4934     1.0972     0.8350     0.2622
 10 Cl    17.4906    17.0000    -0.4906     1.0797     0.8192     0.2605
 11 Cl    17.5074    17.0000    -0.5074     1.0607     0.8005     0.2602

  Mayer bond orders larger than 0.1
B(  0-C ,  1-N ) :   0.8705 B(  0-C ,  5-H ) :   0.9448 B(  0-C ,  6-H ) :   0.9480 
B(  0-C ,  7-H ) :   0.9523 B(  1-N ,  2-H ) :   0.8871 B(  1-N ,  3-H ) :   0.7459 
B(  1-N ,  4-H ) :   0.8139 B(  3-H , 11-Cl) :   0.2441 B(  4-H , 10-Cl) :   0.1397 
B(  8-Pb,  9-Cl) :   0.8053 B(  8-Pb, 10-Cl) :   0.6464 B(  8-Pb, 11-Cl) :   0.5146 



-------
TIMINGS
-------

Total time                :  809.183 sec
Integral trafo            :    3.182 sec (  0.4%)
I/O of integrals          :    0.536 sec (  0.1%)
K(i,j) Operators          :   10.631 sec (  1.3%)
T(i,j) pair energies      :    2.148 sec (  0.3%)
V-calculation             :    0.019 sec (  0.0%)
V**(-1/2)                 :    0.035 sec (  0.0%)
Gamma(ia|P)               :    9.778 sec (  1.2%)
Gamma-Trafo               :    1.333 sec (  0.2%)
D(virtual)                :    4.335 sec (  0.5%)
D(internal)               :    6.821 sec (  0.8%)
W(virtual)                :    8.587 sec (  1.1%)
W(internal)               :   15.644 sec (  1.9%)
L(virtual)                :    8.809 sec (  1.1%)
L(internal)               :    0.516 sec (  0.1%)
G(D)                      :   19.661 sec (  2.4%)
G(Z)                      :   19.750 sec (  2.4%)
Z-Vector Solution         :  533.439 sec ( 65.9%)
Z-Vector Solution         :  533.439 sec ( 65.9%)
3-Index Derivative 
+ Separable RIJ part      :    7.551 sec (  0.9%)
2-Index Derivative 
+ Separable RIJ part      :    0.045 sec (  0.0%)
Separable Gradient (COSX) :  153.419 sec ( 19.0%)


---------------------------------------
MP2 TOTAL ENERGY:    -1669.551786503 Eh
---------------------------------------

The final MP2 gradient
  0:   0.00731952  -0.01696224  -0.00949014
  1:   0.02129990  -0.03433989   0.01882758
  2:   0.00239482  -0.00889850  -0.00063692
  3:   0.00373908   0.01352769  -0.00425658
  4:  -0.01131843  -0.00106274   0.00115633
  5:  -0.01264107   0.00357541  -0.01855020
  6:  -0.00447838   0.00509824   0.00562498
  7:  -0.01414758   0.00951947   0.00467840
  8:   0.03006167   0.06709717   0.02406536
  9:  -0.01935425   0.01012092  -0.00335595
 10:  -0.02088086  -0.05772719   0.02701221
 11:   0.01759348   0.00876431  -0.04447400

-----------------------------------
NORM OF THE MP2 GRADIENT:  0.130738
-----------------------------------

Entering the calculation of the dispersion correction...

Checking the input atom types...

Done


-------------------------------------------------------------------------------
                          DFT DISPERSION CORRECTION                            
                                                                               
                                DFTD3 V2.1  Rev 6                               
                          USING Becke-Johnson damping                          
-------------------------------------------------------------------------------
The B2PLYP functional is recognized
Active option DFTDOPT                   ...         4   

molecular C6(AA) [au] = 4862.138955 


            DFT-D V3
 parameters
 s6 scaling factor         :     0.6400 
 a1 scaling factor         :     0.3065 
 s8 scaling factor         :     0.9147 
 a2 scaling factor         :     5.0570 
 ad hoc parameters k1-k3   :    16.0000     1.3333    -4.0000 

 Edisp/kcal,au: -9.011725101698  -0.014361096546 
 E6   /kcal   :  -4.089107625 
 E8   /kcal   :  -4.922617477 
 % E8         :  54.624585428 

-------------------------   ----------------
Dispersion correction           -0.014361097
-------------------------   ----------------


-------------------------   --------------------
FINAL SINGLE POINT ENERGY     -1669.566147599738
-------------------------   --------------------


                            ***************************************
                            *     ORCA property calculations      *
                            ***************************************


  WARNING: The energy has been calculated at the MP2 level but the densities
           used in the property calculations are still SCF densities
           MP2 response densities have not been calculated 
           use %mp2 Density relaxed end
           or  %mp2 Density unrelaxed end

                                    ---------------------
                                    Active property flags
                                    ---------------------
   (+) Dipole Moment


------------------------------------------------------------------------------
                       ORCA ELECTRIC PROPERTIES CALCULATION
------------------------------------------------------------------------------

Dipole Moment Calculation                       ... on
Quadrupole Moment Calculation                   ... off
Polarizability Calculation                      ... off
GBWName                                         ... PbMACl3_mp2_md_16.orca.gbw
Electron density file                           ... PbMACl3_mp2_md_16.orca.scfp.tmp

-------------
DIPOLE MOMENT
-------------
                                X             Y             Z
Electronic contribution:    -19.16044     -59.28004     -48.10687
Nuclear contribution   :     18.17518      63.01166      49.53450
                        -----------------------------------------
Total Dipole Moment    :     -0.98526       3.73163       1.42763
                        -----------------------------------------
Magnitude (a.u.)       :      4.11508
Magnitude (Debye)      :     10.45971


                         *** MP2 UNRELAXED DENSITY ***

------------------------------------------------------------------------------
                       ORCA ELECTRIC PROPERTIES CALCULATION
------------------------------------------------------------------------------

Dipole Moment Calculation                       ... on
Quadrupole Moment Calculation                   ... off
Polarizability Calculation                      ... off
GBWName                                         ... PbMACl3_mp2_md_16.orca.gbw
Electron density file                           ... PbMACl3_mp2_md_16.orca.pmp2ur

-------------
DIPOLE MOMENT
-------------
                                X             Y             Z
Electronic contribution:    -19.15238     -59.29621     -48.10999
Nuclear contribution   :     18.17518      63.01166      49.53450
                        -----------------------------------------
Total Dipole Moment    :     -0.97720       3.71545       1.42451
                        -----------------------------------------
Magnitude (a.u.)       :      4.09741
Magnitude (Debye)      :     10.41478


                           *** MP2 RELAXED DENSITY ***

------------------------------------------------------------------------------
                       ORCA ELECTRIC PROPERTIES CALCULATION
------------------------------------------------------------------------------

Dipole Moment Calculation                       ... on
Quadrupole Moment Calculation                   ... off
Polarizability Calculation                      ... off
GBWName                                         ... PbMACl3_mp2_md_16.orca.gbw
Electron density file                           ... PbMACl3_mp2_md_16.orca.pmp2re

-------------
DIPOLE MOMENT
-------------
                                X             Y             Z
Electronic contribution:    -19.15205     -59.37967     -48.14754
Nuclear contribution   :     18.17518      63.01166      49.53450
                        -----------------------------------------
Total Dipole Moment    :     -0.97687       3.63200       1.38696
                        -----------------------------------------
Magnitude (a.u.)       :      4.00866
Magnitude (Debye)      :     10.18920


Timings for individual modules:

Sum of individual times         ...     1440.991 sec (=  24.017 min)
GTO integral calculation        ...        9.011 sec (=   0.150 min)   0.6 %
SCF iterations                  ...      621.603 sec (=  10.360 min)  43.1 %
MP2 module                      ...      810.378 sec (=  13.506 min)  56.2 %
                             ****ORCA TERMINATED NORMALLY****
TOTAL RUN TIME: 0 days 0 hours 24 minutes 2 seconds 957 msec
