
                                 *****************
                                 * O   R   C   A *
                                 *****************

           --- An Ab Initio, DFT and Semiempirical electronic structure package ---

                  #######################################################
                  #                        -***-                        #
                  #  Department of molecular theory and spectroscopy    #
                  #              Directorship: Frank Neese              #
                  # Max Planck Institute for Chemical Energy Conversion #
                  #                  D-45470 Muelheim/Ruhr              #
                  #                       Germany                       #
                  #                                                     #
                  #                  All rights reserved                #
                  #                        -***-                        #
                  #######################################################


                         Program Version 3.0.3 - RELEASE   -


 With contributions from (in alphabetic order):
   Ute Becker             : Parallelization
   Dmytro Bykov           : SCF Hessian
   Dmitry Ganyushin       : Spin-Orbit,Spin-Spin,Magnetic field MRCI
   Andreas Hansen         : Spin unrestricted coupled pair/coupled cluster methods
   Dimitrios Liakos       : Extrapolation schemes; parallel MDCI
   Robert Izsak           : Overlap fitted RIJCOSX, COSX-SCS-MP3
   Christian Kollmar      : KDIIS, OOCD, Brueckner-CCSD(T), CCSD density
   Simone Kossmann        : Meta GGA functionals, TD-DFT gradient, OOMP2, MP2 Hessian
   Taras Petrenko         : DFT Hessian,TD-DFT gradient, ASA and ECA modules, normal mode analysis, Resonance Raman, ABS, FL, XAS/XES, NRVS
   Christoph Reimann      : Effective Core Potentials
   Michael Roemelt        : Restricted open shell CIS
   Christoph Riplinger    : Improved optimizer, TS searches, QM/MM, DLPNO-CCSD
   Barbara Sandhoefer     : DKH picture change effects
   Igor Schapiro          : Molecular dynamics
   Kantharuban Sivalingam : CASSCF convergence, NEVPT2
   Boris Wezisla          : Elementary symmetry handling
   Frank Wennmohs         : Technical directorship


 We gratefully acknowledge several colleagues who have allowed us to
 interface, adapt or use parts of their codes:
   Stefan Grimme, W. Hujo, H. Kruse, T. Risthaus : VdW corrections, initial TS optimization,
                                                   DFT functionals, gCP
   Ed Valeev                                     : LibInt (2-el integral package), F12 methods
   Garnet Chan, S. Sharma, R. Olivares           : DMRG
   Ulf Ekstrom                                   : XCFun DFT Library
   Mihaly Kallay                                 : mrcc  (arbitrary order and MRCC methods)
   Andreas Klamt, Michael Diedenhofen            : otool_cosmo (COSMO solvation model)
   Frank Weinhold                                : gennbo (NPA and NBO analysis)
   Christopher J. Cramer and Donald G. Truhlar   : smd solvation model


 Your calculation uses the libint2 library for the computation of 2-el integrals
 For citations please refer to: http://libint.valeyev.net

 This ORCA versions uses:
   CBLAS   interface :  Fast vector & matrix operations
   LAPACKE interface :  Fast linear algebra routines
   SCALAPACK package :  Parallel linear algebra routines


Your calculation utilizes the basis: Ahlrichs-TZV
Cite in your paper:
H - Kr: A. Schaefer, H. Horn and R. Ahlrichs, J. Chem. Phys. 97, 2571 (1992).

The def2-TZV basis will be loaded
Cite in your paper:
 	F. Weigend, R. Ahlrichs, Phys. Chem. Chem. Phys. 2005, 7, 3297.

Your calculation utilizes the atom-pairwise dispersion correction
with the Becke-Johnson damping scheme (D3BJ)
Cite in your paper:
S.Grimme, S.Ehrlich, L.Goerigk, J Comput Chem, (2011), 32, 1456–1465 
S.Grimme, J.Antony, S.Ehrlich and H.Krieg, J.Chem.Phys., 132, (2010), 154104 
   

================================================================================
                                        WARNINGS
                       Please study these warnings very carefully!
================================================================================

WARNING: The RI method has been chosen with no auxiliary basis (AUX or GTOAUX in BASIS block)
        Standard TZV/J expansion basis used (GTOAUX=TZV_J)

Now building the actual basis set
cite the ECPs for Pb [SD(60,MDF)] as follows:
  B. Metz, H. Stoll, M. Dolg, J. Chem. Phys. 113, 2563 (2000).

ECP parameters for Pb [SD(60,MDF)] have been obtained from:
  pseudopotential library of the Stuttgart/Cologne group
  http://www.theochem.uni-stuttgart.de/pseudopotentials/

cite the ECP basis sets for Pb [DEF2-TZVP] as follows:
  F. Weigend, R. Ahlrichs; Phys. Chem. Chem. Phys. 7, 3297(2005).

ECP basis sets for Pb [DEF2-TZVP] have been obtained from:
  Turbomole basis set library
  ftp://ftp.chemie.uni-karlsruhe.de/pub/basen/



INFO   : the flag for use of LIBINT has been found!

================================================================================
                                       INPUT FILE
================================================================================
NAME = PbMACl3_mp2_md_18.orca
|  1> ! RIJCOSX RI-B2PLYP D3BJ def2-TZVP ECP{def2-TZVP} TIGHTSCF Grid5 FinalGrid6 SlowConv MORead
|  2> %method
|  3>  RunTyp Gradient
|  4>  end
|  5> %maxcore 1000
|  6> %moinp "previous.gbw"
|  7> *xyz 0 1
|  8> C -2.225900 0.846158 -0.505886 
|  9> N -3.487090 0.701699 -1.150080 
| 10> H -3.892240 -0.058989 -0.720440 
| 11> H -3.270800 0.506891 -2.103500 
| 12> H -3.976610 1.611420 -1.065050 
| 13> H -1.673370 0.088937 -0.973330 
| 14> H -2.191850 0.824603 0.570625 
| 15> H -1.626640 1.636340 -0.837816 
| 16> Pb -2.907880 -2.637500 -2.339260 
| 17> Cl -1.513050 -4.668060 -2.763240 
| 18> Cl -2.177350 -0.616631 -3.338730 
| 19> Cl -4.019780 -2.380200 -0.125013 
| 20> *
| 21> 
| 22>                          ****END OF INPUT****
================================================================================

                     *******************************
                     * Energy+Gradient Calculation *
                     *******************************

---------------------------------
CARTESIAN COORDINATES (ANGSTROEM)
---------------------------------
  C     -2.225900    0.846158   -0.505886
  N     -3.487090    0.701699   -1.150080
  H     -3.892240   -0.058989   -0.720440
  H     -3.270800    0.506891   -2.103500
  H     -3.976610    1.611420   -1.065050
  H     -1.673370    0.088937   -0.973330
  H     -2.191850    0.824603    0.570625
  H     -1.626640    1.636340   -0.837816
  Pb    -2.907880   -2.637500   -2.339260
  Cl    -1.513050   -4.668060   -2.763240
  Cl    -2.177350   -0.616631   -3.338730
  Cl    -4.019780   -2.380200   -0.125013

----------------------------
CARTESIAN COORDINATES (A.U.)
----------------------------
  NO LB      ZA    FRAG    MASS        X           Y           Z
   0 C     6.0000    0    12.011         -4.206341401495314          1.599006886026538         -0.955985994984886
   1 N     7.0000    0    14.007         -6.589645104335457          1.326018938446408         -2.173336232100153
   2 H     1.0000    0     1.008         -7.355267647493653         -0.111473054913881         -1.361434295922227
   3 H     1.0000    0     1.008         -6.180916238829630          0.957885169749477         -3.975038922703353
   4 H     1.0000    0     1.008         -7.514703841412588          3.045142486723384         -2.012652818932829
   5 H     1.0000    0     1.008         -3.162211020719805          0.168066573172554         -1.839327137929572
   6 H     1.0000    0     1.008         -4.141996226635295          1.558273839209866          1.078324975168814
   7 H     1.0000    0     1.008         -3.073904118481665          3.092234461980701         -1.583242790617367
   8 Pb   22.0000*   0   207.200  -5.495096830306929  -4.984152678217302  -4.420560756036627
   9 Cl   17.0000    0    35.453         -2.859250126929550         -8.821354976712437         -5.221766842296559
  10 Cl   17.0000    0    35.453         -4.114595197693437         -1.165263715685996         -6.309285335106900
  11 Cl   17.0000    0    35.453         -7.596283318613969         -4.497926143959363         -0.236240333179897
* core charge reduced due to ECP

--------------------------------
INTERNAL COORDINATES (ANGSTROEM)
--------------------------------
 C      0   0   0   0.000000     0.000     0.000
 N      1   0   0   1.423536     0.000     0.000
 H      2   1   0   0.963007   104.537     0.000
 H      2   1   3   0.996866   105.095   242.677
 H      2   1   3   1.036558   106.991   125.025
 H      1   2   3   1.047462   101.071    77.957
 H      1   2   3   1.077265   118.567   311.955
 H      1   2   3   1.045790   116.150   180.209
 Pb     4   2   1   3.174033   106.825    87.362
 Cl     9   4   2   2.499697   151.780   245.598
 Cl     4   2   1   1.995928   145.162    48.990
 Cl     3   2   1   2.399754   153.781   296.709

---------------------------
INTERNAL COORDINATES (A.U.)
---------------------------
 C      0   0   0   0.000000     0.000     0.000
 N      1   0   0   2.690093     0.000     0.000
 H      2   1   0   1.819820   104.537     0.000
 H      2   1   3   1.883803   105.095   242.677
 H      2   1   3   1.958811   106.991   125.025
 H      1   2   3   1.979417   101.071    77.957
 H      1   2   3   2.035736   118.567   311.955
 H      1   2   3   1.976258   116.150   180.209
 Pb     4   2   1   5.998054   106.825    87.362
 Cl     9   4   2   4.723742   151.780   245.598
 Cl     4   2   1   3.771757   145.162    48.990
 Cl     3   2   1   4.534878   153.781   296.709

---------------------
BASIS SET INFORMATION
---------------------
There are 5 groups of distinct atoms

 Group   1 Type C   : 11s6p2d1f contracted to 5s3p2d1f pattern {62111/411/11/1}
 Group   2 Type N   : 11s6p2d1f contracted to 5s3p2d1f pattern {62111/411/11/1}
 Group   3 Type H   : 5s1p contracted to 3s1p pattern {311/1}
 Group   4 Type Pb  : 10s9p8d2f contracted to 6s5p3d2f pattern {421111/33111/611/11}
 Group   5 Type Cl  : 14s9p3d1f contracted to 5s5p2d1f pattern {73211/51111/21/1}

Atom   0C    basis set group =>   1
Atom   1N    basis set group =>   2
Atom   2H    basis set group =>   3
Atom   3H    basis set group =>   3
Atom   4H    basis set group =>   3
Atom   5H    basis set group =>   3
Atom   6H    basis set group =>   3
Atom   7H    basis set group =>   3
Atom   8Pb   basis set group =>   4
Atom   9Cl   basis set group =>   5
Atom  10Cl   basis set group =>   5
Atom  11Cl   basis set group =>   5
-------------------------------
AUXILIARY BASIS SET INFORMATION
-------------------------------
There are 5 groups of distinct atoms

 Group   1 Type C   : 12s5p4d2f1g contracted to 6s4p3d1f1g pattern {711111/2111/211/2/1}
 Group   2 Type N   : 12s5p4d2f1g contracted to 6s4p3d1f1g pattern {711111/2111/211/2/1}
 Group   3 Type H   : 5s2p1d contracted to 3s1p1d pattern {311/2/1}
 Group   4 Type Pb  : 31s12p8d6f3g contracted to 31s12p8d6f3g pattern {1111111111111111111111111111111/111111111111/11111111/111111/111}
 Group   5 Type Cl  : 14s5p5d2f1g contracted to 8s4p3d1f1g pattern {71111111/2111/311/2/1}

Atom   0C    basis set group =>   1
Atom   1N    basis set group =>   2
Atom   2H    basis set group =>   3
Atom   3H    basis set group =>   3
Atom   4H    basis set group =>   3
Atom   5H    basis set group =>   3
Atom   6H    basis set group =>   3
Atom   7H    basis set group =>   3
Atom   8Pb   basis set group =>   4
Atom   9Cl   basis set group =>   5
Atom  10Cl   basis set group =>   5
Atom  11Cl   basis set group =>   5

-------------------------
ECP PARAMETER INFORMATION
-------------------------

 Group 1, Type Pb ECP SD(60,MDF) (replacing 60 core electrons, lmax=5)

Atom   8Pb   ECP group =>   1


------------------------------------------------------------------------------
                           ORCA GTO INTEGRAL CALCULATION
                           -- RI-GTO INTEGRALS CHOSEN --
------------------------------------------------------------------------------

                         BASIS SET STATISTICS AND STARTUP INFO

Gaussian basis set:
 # of primitive gaussian shells          ...  186
 # of primitive gaussian functions       ...  420
 # of contracted shells                  ...  101
 # of contracted basis functions         ...  259
 Highest angular momentum                ...    3
 Maximum contraction depth               ...    7
Auxiliary gaussian basis set:
 # of primitive gaussian shells          ...  237
 # of primitive gaussian functions       ...  643
 # of contracted shells                  ...  171
 # of contracted aux-basis functions     ...  493
 Highest angular momentum                ...    4
 Maximum contraction depth               ...    7
Ratio of auxiliary to basis functions    ...  1.90
Integral package used                  ... LIBINT
 One Electron integrals                  
   ECP integrals                         ... done
 Ordering auxiliary basis shells         ... done
 Integral threshhold             Thresh  ...  2.500e-11
 Primitive cut-off               TCut    ...  2.500e-12
 Pre-screening matrix                    ... done
 Shell pair data                         ... 
 Ordering of the shell pairs             ... done (   0.001 sec) 4310 of 5151 pairs
 Determination of significant pairs      ... done (   0.000 sec)
 Creation of shell pair data             ... done (   0.001 sec)
 Storage of shell pair data              ... done (   0.001 sec)
 Shell pair data done in (   0.002 sec)
 Computing two index integrals           ... done
 Cholesky decomposition of the V-matrix  ... done


Timings:
 Total evaluation time                   ...   0.782 sec (  0.013 min)
 One electron matrix time                ...   0.381 sec (  0.006 min) = 48.6%
 Schwartz matrix evaluation time         ...   0.214 sec (  0.004 min) = 27.3%
 Two index repulsion integral time       ...   0.007 sec (  0.000 min) =  0.9%
 Cholesky decomposition of V             ...   0.153 sec (  0.003 min) = 19.5%
 Three index repulsion integral time     ...   0.000 sec (  0.000 min) =  0.0%

-------------------------------------------------------------------------------
                                 ORCA SCF
-------------------------------------------------------------------------------

------------
SCF SETTINGS
------------
Hamiltonian:
 Density Functional     Method          .... DFT(GTOs)
 Exchange Functional    Exchange        .... B88
   X-Alpha parameter    XAlpha          ....  0.666667
   Becke's b parameter  XBeta           ....  0.004200
 Correlation Functional Correlation     .... LYP
 LDA part of GGA corr.  LDAOpt          .... VWN-3
 Gradients option       PostSCFGGA      .... off
 Hybrid DFT is turned on
   Fraction HF Exchange ScalHFX         ....  0.530000
   Scaling of DF-GGA-X  ScalDFX         ....  0.470000
   Scaling of DF-GGA-C  ScalDFC         ....  0.730000
   Scaling of DF-LDA-C  ScalLDAC        ....  0.730000
   Perturbative correction              ....  0.270000
 RI-approximation to the Coulomb term is turned on
   Number of auxiliary basis functions  .... 493
   RIJ-COSX (HFX calculated with COS-X)).... on


General Settings:
 Integral files         IntName         .... PbMACl3_mp2_md_18.orca
 Hartree-Fock type      HFTyp           .... RHF
 Total Charge           Charge          ....    0
 Multiplicity           Mult            ....    1
 Number of Electrons    NEL             ....   92
 Basis Dimension        Dim             ....  259
 Nuclear Repulsion      ENuc            ....    595.0421692761 Eh

Convergence Acceleration:
 DIIS                   CNVDIIS         .... on
   Start iteration      DIISMaxIt       ....     0
   Startup error        DIISStart       ....  0.200000
   # of expansion vecs  DIISMaxEq       ....     5
   Bias factor          DIISBfac        ....   1.050
   Max. coefficient     DIISMaxC        ....  10.000
 Newton-Raphson         CNVNR           .... off
 SOSCF                  CNVSOSCF        .... on
   Start iteration      SOSCFMaxIt      ....   150
   Startup grad/error   SOSCFStart      ....  0.001000
 Level Shifting         CNVShift        .... on
   Level shift para.    LevelShift      ....    0.2500
   Turn off err/grad.   ShiftErr        ....    0.0000
 Zerner damping         CNVZerner       .... off
 Static damping         CNVDamp         .... on
   Fraction old density DampFac         ....    0.8500
   Max. Damping (<1)    DampMax         ....    0.9800
   Min. Damping (>=0)   DampMin         ....    0.0000
   Turn off err/grad.   DampErr         ....    0.0300
 Fernandez-Rico         CNVRico         .... off

SCF Procedure:
 Maximum # iterations   MaxIter         ....   125
 SCF integral mode      SCFMode         .... Direct
   Integral package                     .... LIBINT
 Reset frequeny         DirectResetFreq ....    20
 Integral Threshold     Thresh          ....  2.500e-11 Eh
 Primitive CutOff       TCut            ....  2.500e-12 Eh

Convergence Tolerance:
 Convergence Check Mode ConvCheckMode   .... Total+1el-Energy
 Energy Change          TolE            ....  1.000e-08 Eh
 1-El. energy change                    ....  1.000e-05 Eh
 Orbital Gradient       TolG            ....  1.000e-05
 Orbital Rotation angle TolX            ....  1.000e-05
 DIIS Error             TolErr          ....  5.000e-07


Diagonalization of the overlap matrix:
Smallest eigenvalue                        ... 7.824e-04
Time for diagonalization                   ...    0.237 sec
Threshold for overlap eigenvalues          ... 1.000e-08
Number of eigenvalues below threshold      ... 0
Time for construction of square roots      ...    0.007 sec
Total time needed                          ...    0.244 sec

---------------------
INITIAL GUESS: MOREAD
---------------------
Guess MOs are being read from file: previous.gbw
Input geometry compatible with but different from current geometry
Input basis set matches current basis set (good)
MOs were renormalized
MOs were reorthogonalized (Schmidt)
                      ------------------
                      INITIAL GUESS DONE (   0.1 sec)
                      ------------------
-------------------
DFT GRID GENERATION
-------------------

General Integration Accuracy     IntAcc      ...  5.010
Radial Grid Type                 RadialGrid  ... Gauss-Chebyshev
Angular Grid (max. acc.)         AngularGrid ... Lebedev-434
Angular grid pruning method      GridPruning ... 3 (G Style)
Weight generation scheme         WeightScheme... Becke
Basis function cutoff            BFCut       ...    1.0000e-11
Integration weight cutoff        WCut        ...    1.0000e-14
Grids for H and He will be reduced by one unit

# of grid points (after initial pruning)     ... 115882 (   0.0 sec)
# of grid points (after weights+screening)   ... 108484 (   0.3 sec)
nearest neighbour list constructed           ...    0.0 sec
Grid point re-assignment to atoms done       ...    0.0 sec
Grid point division into batches done        ...    1.0 sec
Reduced shell lists constructed in    2.3 sec

Total number of grid points                  ...   108484
Total number of batches                      ...     1700
Average number of points per batch           ...       63
Average number of grid points per atom       ...     9040
Average number of shells per batch           ...    53.84 (53.31%)
Average number of basis functions per batch  ...   141.78 (54.74%)
Average number of large shells per batch     ...    40.89 (75.94%)
Average number of large basis fcns per batch ...   105.72 (74.56%)
Maximum spatial batch extension              ...  37.95, 26.17, 41.08 au
Average spatial batch extension              ...   2.52,  2.30,  2.47 au

Time for grid setup =    2.661 sec

--------------------
COSX GRID GENERATION
--------------------

General Integration Accuracy     IntAcc      ...  3.340
Radial Grid Type                 RadialGrid  ... Gauss-Chebyshev
Angular Grid (max. acc.)         AngularGrid ... Lebedev-50
Angular grid pruning method      GridPruning ... 3 (G Style)
Weight generation scheme         WeightScheme... Becke
Basis function cutoff            BFCut       ...    1.0000e-11
Integration weight cutoff        WCut        ...    1.0000e-14
Grids for H and He will be reduced by one unit

# of grid points (after initial pruning)     ...   6578 (   0.0 sec)
# of grid points (after weights+screening)   ...   6253 (   0.0 sec)
nearest neighbour list constructed           ...    0.0 sec
Grid point re-assignment to atoms done       ...    0.0 sec
Grid point division into batches done        ...    0.0 sec
Reduced shell lists constructed in    0.1 sec

Total number of grid points                  ...     6253
Total number of batches                      ...      104
Average number of points per batch           ...       60
Average number of grid points per atom       ...      521
Average number of shells per batch           ...    64.75 (64.11%)
Average number of basis functions per batch  ...   172.73 (66.69%)
Average number of large shells per batch     ...    50.82 (78.48%)
Average number of large basis fcns per batch ...   133.49 (77.28%)
Maximum spatial batch extension              ...  40.64, 24.31, 36.32 au
Average spatial batch extension              ...   6.62,  5.80,  7.10 au

Overlap Fitting                  UseSFitting ... on
Constructing numerical overlap ... done (      0.1 sec)
Inverting numerical overlap    ... done (      0.0 sec)
Obtaining analytic overlap     ... done (      0.0 sec)
Final contraction and storage  ... done (      0.0 sec)


General Integration Accuracy     IntAcc      ...  3.670
Radial Grid Type                 RadialGrid  ... Gauss-Chebyshev
Angular Grid (max. acc.)         AngularGrid ... Lebedev-50
Angular grid pruning method      GridPruning ... 3 (G Style)
Weight generation scheme         WeightScheme... Becke
Basis function cutoff            BFCut       ...    1.0000e-11
Integration weight cutoff        WCut        ...    1.0000e-14
Grids for H and He will be reduced by one unit

# of grid points (after initial pruning)     ...   8124 (   0.0 sec)
# of grid points (after weights+screening)   ...   7704 (   0.0 sec)
nearest neighbour list constructed           ...    0.0 sec
Grid point re-assignment to atoms done       ...    0.0 sec
Grid point division into batches done        ...    0.0 sec
Reduced shell lists constructed in    0.1 sec

Total number of grid points                  ...     7704
Total number of batches                      ...      127
Average number of points per batch           ...       60
Average number of grid points per atom       ...      642
Average number of shells per batch           ...    64.18 (63.54%)
Average number of basis functions per batch  ...   170.96 (66.01%)
Average number of large shells per batch     ...    50.12 (78.10%)
Average number of large basis fcns per batch ...   130.94 (76.59%)
Maximum spatial batch extension              ...  42.24, 25.37, 37.91 au
Average spatial batch extension              ...   6.08,  5.32,  6.41 au

Overlap Fitting                  UseSFitting ... on
Constructing numerical overlap ... done (      0.1 sec)
Inverting numerical overlap    ... done (      0.0 sec)
Obtaining analytic overlap     ... done (      0.0 sec)
Final contraction and storage  ... done (      0.0 sec)


General Integration Accuracy     IntAcc      ...  4.010
Radial Grid Type                 RadialGrid  ... Gauss-Chebyshev
Angular Grid (max. acc.)         AngularGrid ... Lebedev-110
Angular grid pruning method      GridPruning ... 3 (G Style)
Weight generation scheme         WeightScheme... Becke
Basis function cutoff            BFCut       ...    1.0000e-11
Integration weight cutoff        WCut        ...    1.0000e-14
Grids for H and He will be reduced by one unit

# of grid points (after initial pruning)     ...  15170 (   0.0 sec)
# of grid points (after weights+screening)   ...  14416 (   0.0 sec)
nearest neighbour list constructed           ...    0.0 sec
Grid point re-assignment to atoms done       ...    0.0 sec
Grid point division into batches done        ...    0.0 sec
Reduced shell lists constructed in    0.2 sec

Total number of grid points                  ...    14416
Total number of batches                      ...      232
Average number of points per batch           ...       62
Average number of grid points per atom       ...     1201
Average number of shells per batch           ...    61.15 (60.54%)
Average number of basis functions per batch  ...   162.96 (62.92%)
Average number of large shells per batch     ...    47.06 (76.97%)
Average number of large basis fcns per batch ...   123.27 (75.65%)
Maximum spatial batch extension              ...  39.26, 24.80, 34.29 au
Average spatial batch extension              ...   5.27,  4.21,  4.97 au

Overlap Fitting                  UseSFitting ... on
Constructing numerical overlap ... done (      0.2 sec)
Inverting numerical overlap    ... done (      0.0 sec)
Obtaining analytic overlap     ... done (      0.0 sec)
Final contraction and storage  ... done (      0.0 sec)

Time for X-Grid setup             =    0.934 sec
--------------
SCF ITERATIONS
--------------
ITER       Energy         Delta-E        Max-DP      RMS-DP      [F,P]     Damp
               ***  Starting incremental Fock matrix formation  ***
  0  -1664.1275823326   0.000000000000 0.07331110  0.00190380  0.6972142 0.8500
  1  -1664.7969140013  -0.669331668698 0.07525491  0.00176011  0.5931737 0.8500
                               ***Turning on DIIS***
  2  -1665.3743711393  -0.577457138022 0.06379548  0.00152412  0.5044047 0.8500
  3  -1665.8683976948  -0.494026555525 0.05279243  0.00130390  0.4289039 0.8500
  4  -1666.2957660493  -0.427368354423 0.04468442  0.00113161  0.3646554 0.8500
  5  -1666.6642949763  -0.368528927068 0.03800528  0.00098539  0.3099922 0.8500
  6  -1666.9840979577  -0.319802981380 0.03268722  0.00085315  0.2635068 0.8500
  7  -1667.2621694484  -0.278071490708 0.02816208  0.00073439  0.2239875 0.8500
  8  -1667.5036567708  -0.241487322389 0.02436234  0.00062912  0.1903960 0.8500
  9  -1667.7121525924  -0.208495821583 0.02085792  0.00053727  0.1618428 0.8500
 10  -1667.8915654010  -0.179412808604 0.01771133  0.00045832  0.1375715 0.8500
 11  -1668.0457022436  -0.154136842647 0.01502322  0.00039089  0.1169399 0.8500
 12  -1668.1779640303  -0.132261786674 0.01276881  0.00033337  0.0994022 0.8500
 13  -1668.2913145221  -0.113350491765 0.01087376  0.00028422  0.0844944 0.8500
 14  -1668.3883318839  -0.097017361848 0.00925961  0.00024222  0.0718222 0.8500
 15  -1668.4712762927  -0.082944408807 0.00787745  0.00020638  0.0610504 0.8500
 16  -1668.5421262339  -0.070849941143 0.00669835  0.00017583  0.0518941 0.8500
 17  -1668.6026020874  -0.060475853513 0.00569699  0.00014981  0.0441110 0.8500
 18  -1668.6541916017  -0.051589514291 0.00484750  0.00012764  0.0374952 0.8500
 19  -1668.6981772743  -0.043985672605 0.00412561  0.00010875  0.0318716 0.8500
               *** Restarting incremental Fock matrix formation ***
                                   *** Resetting DIIS ***
 20  -1668.7382950762  -0.040117801941 0.02206080  0.00059021  0.0270914 0.0000
 21  -1668.9522225025  -0.213927426238 0.00467311  0.00007451  0.0093199 0.0000
 22  -1668.9523972660  -0.000174763567 0.00186291  0.00002708  0.0047589 0.0000
                      *** Initiating the SOSCF procedure ***
                           *** Shutting down DIIS ***
                      *** Re-Reading the Fockian *** 
                      *** Removing any level shift *** 
ITER      Energy       Delta-E        Grad      Rot      Max-DP    RMS-DP
 23  -1668.95244058  -0.0000433153  0.000203  0.000203  0.000458  0.000010
               *** Restarting incremental Fock matrix formation ***
 24  -1668.94982245   0.0026181337  0.000349  0.000803  0.001694  0.000032
 25  -1668.94982191   0.0000005374  0.000058  0.000286  0.000309  0.000008
 26  -1668.94982119   0.0000007192  0.000061  0.000147  0.000180  0.000004
 27  -1668.94982156  -0.0000003646  0.000014  0.000045  0.000067  0.000001
 28  -1668.94982163  -0.0000000757  0.000004  0.000029  0.000028  0.000000
 29  -1668.94982162   0.0000000126  0.000003  0.000003  0.000006  0.000000
                  ***Gradient check signals convergence***
              ***Rediagonalizing the Fockian in SOSCF/NRSCF***

               *****************************************************
               *                     SUCCESS                       *
               *           SCF CONVERGED AFTER  30 CYCLES          *
               *****************************************************

Old exchange energy                            =    -59.294043887 Eh
New exchange energy                            =    -59.296822795 Eh
Exchange energy change after final integration =     -0.002778909 Eh
Total energy after final integration           =  -1668.952600523 Eh
Final COS-X integration done in                =    24.317 sec

----------------
TOTAL SCF ENERGY
----------------

Total Energy       :        -1668.95260052 Eh          -45414.50909 eV

Components:
Nuclear Repulsion  :          595.04216928 Eh           16191.92061 eV
Electronic Energy  :        -2263.99476980 Eh          -61606.42970 eV

One Electron Energy:        -3560.66444193 Eh          -96890.60529 eV
Two Electron Energy:         1296.66967213 Eh           35284.17559 eV

Virial components:
Potential Energy   :        -3207.49484107 Eh          -87280.37187 eV
Kinetic Energy     :         1538.54224054 Eh           41865.86278 eV
Virial Ratio       :            2.08476229


DFT components:
N(Alpha)           :       46.000017923741 electrons
N(Beta)            :       46.000017923741 electrons
N(Total)           :       92.000035847481 electrons
E(X)               :      -52.655655793191 Eh       
E(C)               :       -2.615325716325 Eh       
E(XC)              :      -55.270981509516 Eh       

---------------
SCF CONVERGENCE
---------------

  Last Energy change         ...    3.8672e-09  Tolerance :   1.0000e-08
  Last MAX-Density change    ...    1.2487e-13  Tolerance :   1.0000e-07
  Last RMS-Density change    ...    7.8984e-16  Tolerance :   5.0000e-09
  Last Orbital Gradient      ...    3.9135e-07  Tolerance :   1.0000e-05
  Last Orbital Rotation      ...    9.7890e-07  Tolerance :   1.0000e-05

             **** THE GBW FILE WAS UPDATED (PbMACl3_mp2_md_18.orca.gbw) ****
             **** DENSITY FILE WAS UPDATED (PbMACl3_mp2_md_18.orca.scfp.tmp) ****
             **** ENERGY FILE WAS UPDATED (PbMACl3_mp2_md_18.orca.en.tmp) ****
----------------
ORBITAL ENERGIES
----------------

  NO   OCC          E(Eh)            E(eV) 
   0   2.0000    -102.875293     -2799.3791 
   1   2.0000    -102.847717     -2798.6286 
   2   2.0000    -102.814579     -2797.7269 
   3   2.0000     -15.000940      -408.1963 
   4   2.0000     -10.703695      -291.2623 
   5   2.0000      -9.886368      -269.0218 
   6   2.0000      -9.856061      -268.1970 
   7   2.0000      -9.822010      -267.2705 
   8   2.0000      -7.522793      -204.7056 
   9   2.0000      -7.521579      -204.6726 
  10   2.0000      -7.521284      -204.6645 
  11   2.0000      -7.492625      -203.8847 
  12   2.0000      -7.491464      -203.8531 
  13   2.0000      -7.491261      -203.8476 
  14   2.0000      -7.458966      -202.9688 
  15   2.0000      -7.457279      -202.9229 
  16   2.0000      -7.457090      -202.9177 
  17   2.0000      -5.778011      -157.2277 
  18   2.0000      -3.550893       -96.6247 
  19   2.0000      -3.548669       -96.5642 
  20   2.0000      -3.547244       -96.5254 
  21   2.0000      -1.214718       -33.0542 
  22   2.0000      -0.972963       -26.4757 
  23   2.0000      -0.952114       -25.9083 
  24   2.0000      -0.947573       -25.7848 
  25   2.0000      -0.940770       -25.5996 
  26   2.0000      -0.939467       -25.5642 
  27   2.0000      -0.897544       -24.4234 
  28   2.0000      -0.888159       -24.1680 
  29   2.0000      -0.865735       -23.5579 
  30   2.0000      -0.830886       -22.6096 
  31   2.0000      -0.752533       -20.4775 
  32   2.0000      -0.738921       -20.1071 
  33   2.0000      -0.636222       -17.3125 
  34   2.0000      -0.555404       -15.1133 
  35   2.0000      -0.551635       -15.0107 
  36   2.0000      -0.517858       -14.0916 
  37   2.0000      -0.407938       -11.1006 
  38   2.0000      -0.397912       -10.8277 
  39   2.0000      -0.386931       -10.5289 
  40   2.0000      -0.365824        -9.9546 
  41   2.0000      -0.352550        -9.5934 
  42   2.0000      -0.349992        -9.5238 
  43   2.0000      -0.314116        -8.5475 
  44   2.0000      -0.310691        -8.4543 
  45   2.0000      -0.237683        -6.4677 
  46   0.0000      -0.021065        -0.5732 
  47   0.0000       0.000479         0.0130 
  48   0.0000       0.057824         1.5735 
  49   0.0000       0.064371         1.7516 
  50   0.0000       0.067519         1.8373 
  51   0.0000       0.090568         2.4645 
  52   0.0000       0.104121         2.8333 
  53   0.0000       0.121106         3.2955 
  54   0.0000       0.138513         3.7691 
  55   0.0000       0.142200         3.8695 
  56   0.0000       0.155714         4.2372 
  57   0.0000       0.165000         4.4899 
  58   0.0000       0.174833         4.7574 
  59   0.0000       0.196843         5.3564 
  60   0.0000       0.215634         5.8677 
  61   0.0000       0.230302         6.2668 
  62   0.0000       0.247879         6.7451 
  63   0.0000       0.256939         6.9917 
  64   0.0000       0.264978         7.2104 
  65   0.0000       0.284445         7.7401 
  66   0.0000       0.304440         8.2842 
  67   0.0000       0.313236         8.5236 
  68   0.0000       0.325383         8.8541 
  69   0.0000       0.365552         9.9472 
  70   0.0000       0.394538        10.7359 
  71   0.0000       0.401912        10.9366 
  72   0.0000       0.426060        11.5937 
  73   0.0000       0.432629        11.7724 
  74   0.0000       0.445962        12.1353 
  75   0.0000       0.450986        12.2720 
  76   0.0000       0.453845        12.3498 
  77   0.0000       0.463366        12.6088 
  78   0.0000       0.467719        12.7273 
  79   0.0000       0.480908        13.0862 
  80   0.0000       0.484891        13.1946 
  81   0.0000       0.499344        13.5878 
  82   0.0000       0.501929        13.6582 
  83   0.0000       0.511714        13.9245 
  84   0.0000       0.517753        14.0888 
  85   0.0000       0.538710        14.6591 
  86   0.0000       0.544741        14.8232 
  87   0.0000       0.557881        15.1807 
  88   0.0000       0.559144        15.2151 
  89   0.0000       0.567340        15.4381 
  90   0.0000       0.590727        16.0745 
  91   0.0000       0.597235        16.2516 
  92   0.0000       0.600796        16.3485 
  93   0.0000       0.608905        16.5691 
  94   0.0000       0.626959        17.0604 
  95   0.0000       0.631976        17.1970 
  96   0.0000       0.646724        17.5983 
  97   0.0000       0.647904        17.6304 
  98   0.0000       0.667620        18.1669 
  99   0.0000       0.721591        19.6355 
 100   0.0000       0.729161        19.8415 
 101   0.0000       0.767263        20.8783 
 102   0.0000       0.769118        20.9288 
 103   0.0000       0.782545        21.2941 
 104   0.0000       0.786435        21.4000 
 105   0.0000       0.808901        22.0113 
 106   0.0000       0.842733        22.9319 
 107   0.0000       0.856064        23.2947 
 108   0.0000       0.897708        24.4279 
 109   0.0000       0.902839        24.5675 
 110   0.0000       0.911055        24.7911 
 111   0.0000       0.930477        25.3196 
 112   0.0000       0.944075        25.6896 
 113   0.0000       0.953146        25.9364 
 114   0.0000       0.981603        26.7108 
 115   0.0000       0.993289        27.0288 
 116   0.0000       0.996343        27.1119 
 117   0.0000       1.058299        28.7978 
 118   0.0000       1.080209        29.3940 
 119   0.0000       1.085187        29.5294 
 120   0.0000       1.109114        30.1805 
 121   0.0000       1.142633        31.0926 
 122   0.0000       1.160176        31.5700 
 123   0.0000       1.225260        33.3410 
 124   0.0000       1.244774        33.8720 
 125   0.0000       1.275642        34.7120 
 126   0.0000       1.309167        35.6243 
 127   0.0000       1.341730        36.5103 
 128   0.0000       1.347883        36.6778 
 129   0.0000       1.360099        37.0102 
 130   0.0000       1.429578        38.9008 
 131   0.0000       1.520153        41.3655 
 132   0.0000       1.563007        42.5316 
 133   0.0000       1.581573        43.0368 
 134   0.0000       1.599341        43.5203 
 135   0.0000       1.652929        44.9785 
 136   0.0000       1.736613        47.2556 
 137   0.0000       1.779093        48.4116 
 138   0.0000       1.799087        48.9556 
 139   0.0000       1.823392        49.6170 
 140   0.0000       1.875215        51.0272 
 141   0.0000       1.905788        51.8591 
 142   0.0000       1.933574        52.6152 
 143   0.0000       1.947570        52.9961 
 144   0.0000       1.953242        53.1504 
 145   0.0000       1.962177        53.3936 
 146   0.0000       1.970178        53.6113 
 147   0.0000       1.979932        53.8767 
 148   0.0000       1.985823        54.0370 
 149   0.0000       1.996636        54.3312 
 150   0.0000       2.007674        54.6316 
 151   0.0000       2.022436        55.0333 
 152   0.0000       2.032806        55.3155 
 153   0.0000       2.050242        55.7899 
 154   0.0000       2.070369        56.3376 
 155   0.0000       2.079938        56.5980 
 156   0.0000       2.091037        56.9000 
 157   0.0000       2.113022        57.4982 
 158   0.0000       2.124413        57.8082 
 159   0.0000       2.131634        58.0047 
 160   0.0000       2.147488        58.4361 
 161   0.0000       2.151126        58.5351 
 162   0.0000       2.166468        58.9526 
 163   0.0000       2.172443        59.1152 
 164   0.0000       2.179875        59.3174 
 165   0.0000       2.181570        59.3635 
 166   0.0000       2.195607        59.7455 
 167   0.0000       2.231801        60.7304 
 168   0.0000       2.240495        60.9670 
 169   0.0000       2.243030        61.0359 
 170   0.0000       2.263205        61.5849 
 171   0.0000       2.266490        61.6743 
 172   0.0000       2.268929        61.7407 
 173   0.0000       2.284695        62.1697 
 174   0.0000       2.291855        62.3646 
 175   0.0000       2.292834        62.3912 
 176   0.0000       2.308644        62.8214 
 177   0.0000       2.322528        63.1992 
 178   0.0000       2.327140        63.3247 
 179   0.0000       2.330355        63.4122 
 180   0.0000       2.353219        64.0343 
 181   0.0000       2.355989        64.1097 
 182   0.0000       2.373223        64.5787 
 183   0.0000       2.385030        64.9000 
 184   0.0000       2.409948        65.5780 
 185   0.0000       2.416159        65.7470 
 186   0.0000       2.421209        65.8845 
 187   0.0000       2.435777        66.2809 
 188   0.0000       2.447422        66.5977 
 189   0.0000       2.452337        66.7315 
 190   0.0000       2.462101        66.9972 
 191   0.0000       2.477377        67.4129 
 192   0.0000       2.486051        67.6489 
 193   0.0000       2.501907        68.0804 
 194   0.0000       2.509608        68.2899 
 195   0.0000       2.516214        68.4697 
 196   0.0000       2.572353        69.9973 
 197   0.0000       2.590674        70.4958 
 198   0.0000       2.616856        71.2083 
 199   0.0000       2.643373        71.9298 
 200   0.0000       2.670936        72.6799 
 201   0.0000       2.702672        73.5434 
 202   0.0000       2.711674        73.7884 
 203   0.0000       2.762738        75.1779 
 204   0.0000       2.766033        75.2676 
 205   0.0000       2.802064        76.2481 
 206   0.0000       2.818401        76.6926 
 207   0.0000       2.862651        77.8967 
 208   0.0000       2.883112        78.4535 
 209   0.0000       2.904011        79.0221 
 210   0.0000       2.972337        80.8814 
 211   0.0000       2.977635        81.0256 
 212   0.0000       3.039391        82.7060 
 213   0.0000       3.080998        83.8382 
 214   0.0000       3.154421        85.8362 
 215   0.0000       3.213887        87.4543 
 216   0.0000       3.307519        90.0022 
 217   0.0000       3.440473        93.6200 
 218   0.0000       3.524280        95.9005 
 219   0.0000       3.597482        97.8925 
 220   0.0000       3.618624        98.4678 
 221   0.0000       3.664108        99.7055 
 222   0.0000       3.859070       105.0106 
 223   0.0000       3.964725       107.8856 
 224   0.0000       4.112890       111.9174 
 225   0.0000       4.191223       114.0490 
 226   0.0000       4.360813       118.6637 
 227   0.0000       4.518467       122.9537 
 228   0.0000       4.609945       125.4430 
 229   0.0000       4.865266       132.3906 
 230   0.0000       4.890694       133.0825 
 231   0.0000       4.921108       133.9102 
 232   0.0000       4.939055       134.3985 
 233   0.0000       5.031883       136.9245 
 234   0.0000       5.070080       137.9639 
 235   0.0000       5.237056       142.5075 
 236   0.0000       5.309763       144.4860 
 237   0.0000       5.523397       150.2993 
 238   0.0000       5.650814       153.7665 
 239   0.0000       6.017368       163.7409 
 240   0.0000      11.055875       300.8456 
 241   0.0000      11.069525       301.2171 
 242   0.0000      11.092009       301.8289 
 243   0.0000      11.099781       302.0404 
 244   0.0000      11.107620       302.2537 
 245   0.0000      11.150314       303.4155 
 246   0.0000      11.203272       304.8565 
 247   0.0000      11.231322       305.6198 
 248   0.0000      11.248912       306.0985 
 249   0.0000      22.896172       623.0365 
 250   0.0000      25.200645       685.7444 
 251   0.0000      25.307580       688.6543 
 252   0.0000      25.473832       693.1782 
 253   0.0000      32.343780       880.1190 
 254   0.0000      35.643106       969.8982 
 255   0.0000      35.764599       973.2042 
 256   0.0000      35.878114       976.2931 
 257   0.0000      35.965344       978.6668 
 258   0.0000     123.667533      3365.1647 

                    ********************************
                    * MULLIKEN POPULATION ANALYSIS *
                    ********************************

-----------------------
MULLIKEN ATOMIC CHARGES
-----------------------
   0 C :   -0.302748
   1 N :   -0.221973
   2 H :    0.260473
   3 H :    0.277696
   4 H :    0.288678
   5 H :    0.164453
   6 H :    0.170285
   7 H :    0.163164
   8 Pb:    0.820286
   9 Cl:   -0.537801
  10 Cl:   -0.526927
  11 Cl:   -0.555586
Sum of atomic charges:    0.0000000

--------------------------------
MULLIKEN REDUCED ORBITAL CHARGES
--------------------------------
  0 C s       :     3.239817  s :     3.239817
      pz      :     1.054076  p :     2.990521
      px      :     0.777845
      py      :     1.158600
      dz2     :     0.016888  d :     0.065416
      dxz     :     0.011690
      dyz     :     0.007308
      dx2y2   :     0.008485
      dxy     :     0.021044
      f0      :     0.001575  f :     0.006995
      f+1     :     0.001420
      f-1     :     0.000042
      f+2     :     0.000919
      f-2     :     0.000790
      f+3     :     0.001198
      f-3     :     0.001050
  1 N s       :     3.407111  s :     3.407111
      pz      :     1.286869  p :     3.764971
      px      :     1.235143
      py      :     1.242958
      dz2     :     0.012243  d :     0.047198
      dxz     :     0.007587
      dyz     :     0.003154
      dx2y2   :     0.006893
      dxy     :     0.017321
      f0      :     0.000532  f :     0.002693
      f+1     :     0.000529
      f-1     :     0.000137
      f+2     :     0.000098
      f-2     :     0.000319
      f+3     :     0.000728
      f-3     :     0.000350
  2 H s       :     0.698294  s :     0.698294
      pz      :     0.010970  p :     0.041233
      px      :     0.009350
      py      :     0.020913
  3 H s       :     0.674943  s :     0.674943
      pz      :     0.028064  p :     0.047362
      px      :     0.009950
      py      :     0.009348
  4 H s       :     0.679040  s :     0.679040
      pz      :     0.005965  p :     0.032282
      px      :     0.009150
      py      :     0.017167
  5 H s       :     0.808909  s :     0.808909
      pz      :     0.007608  p :     0.026638
      px      :     0.008008
      py      :     0.011022
  6 H s       :     0.807238  s :     0.807238
      pz      :     0.015003  p :     0.022477
      px      :     0.002813
      py      :     0.004660
  7 H s       :     0.812478  s :     0.812478
      pz      :     0.005213  p :     0.024358
      px      :     0.008190
      py      :     0.010955
  8 Pbs       :     3.966344  s :     3.966344
      pz      :     2.303224  p :     6.965897
      px      :     2.340204
      py      :     2.322470
      dz2     :     2.030047  d :    10.169164
      dxz     :     2.035284
      dyz     :     2.034164
      dx2y2   :     2.036658
      dxy     :     2.033011
      f0      :     0.012373  f :     0.078309
      f+1     :     0.009761
      f-1     :     0.012082
      f+2     :     0.009702
      f-2     :     0.009649
      f+3     :     0.013973
      f-3     :     0.010770
  9 Cls       :     5.951626  s :     5.951626
      pz      :     3.904418  p :    11.566761
      px      :     3.891667
      py      :     3.770676
      dz2     :     0.002762  d :     0.018505
      dxz     :     0.001156
      dyz     :     0.002851
      dx2y2   :     0.003912
      dxy     :     0.007824
      f0      :     0.000083  f :     0.000909
      f+1     :     0.000060
      f-1     :     0.000130
      f+2     :     0.000045
      f-2     :     0.000125
      f+3     :     0.000292
      f-3     :     0.000174
 10 Cls       :     5.948664  s :     5.948664
      pz      :     3.864901  p :    11.546666
      px      :     3.899691
      py      :     3.782074
      dz2     :     0.005143  d :     0.030152
      dxz     :     0.004282
      dyz     :     0.008470
      dx2y2   :     0.005777
      dxy     :     0.006480
      f0      :     0.000176  f :     0.001445
      f+1     :     0.000084
      f-1     :     0.000194
      f+2     :     0.000256
      f-2     :     0.000283
      f+3     :     0.000266
      f-3     :     0.000187
 11 Cls       :     5.952358  s :     5.952358
      pz      :     3.837439  p :    11.582018
      px      :     3.859405
      py      :     3.885173
      dz2     :     0.007980  d :     0.020392
      dxz     :     0.006753
      dyz     :     0.003156
      dx2y2   :     0.001582
      dxy     :     0.000922
      f0      :     0.000201  f :     0.000818
      f+1     :     0.000334
      f-1     :     0.000077
      f+2     :     0.000107
      f-2     :     0.000083
      f+3     :     0.000005
      f-3     :     0.000011


                     *******************************
                     * LOEWDIN POPULATION ANALYSIS *
                     *******************************

----------------------
LOEWDIN ATOMIC CHARGES
----------------------
   0 C :   -0.311491
   1 N :    0.162517
   2 H :    0.151166
   3 H :    0.138436
   4 H :    0.214698
   5 H :    0.118336
   6 H :    0.127258
   7 H :    0.118905
   8 Pb:   -0.173897
   9 Cl:   -0.220570
  10 Cl:   -0.094138
  11 Cl:   -0.231220

-------------------------------
LOEWDIN REDUCED ORBITAL CHARGES
-------------------------------
  0 C s       :     2.810386  s :     2.810386
      pz      :     1.072812  p :     3.126035
      px      :     0.905347
      py      :     1.147876
      dz2     :     0.086304  d :     0.329993
      dxz     :     0.075676
      dyz     :     0.021753
      dx2y2   :     0.049871
      dxy     :     0.096389
      f0      :     0.004665  f :     0.045078
      f+1     :     0.008746
      f-1     :     0.000371
      f+2     :     0.008616
      f-2     :     0.009590
      f+3     :     0.006992
      f-3     :     0.006098
  1 N s       :     2.943017  s :     2.943017
      pz      :     1.248847  p :     3.699497
      px      :     1.254107
      py      :     1.196543
      dz2     :     0.048228  d :     0.181450
      dxz     :     0.030767
      dyz     :     0.014614
      dx2y2   :     0.026134
      dxy     :     0.061708
      f0      :     0.001227  f :     0.013519
      f+1     :     0.002945
      f-1     :     0.000717
      f+2     :     0.002014
      f-2     :     0.002184
      f+3     :     0.002521
      f-3     :     0.001911
  2 H s       :     0.717566  s :     0.717566
      pz      :     0.037052  p :     0.131268
      px      :     0.030771
      py      :     0.063445
  3 H s       :     0.711667  s :     0.711667
      pz      :     0.089240  p :     0.149897
      px      :     0.032137
      py      :     0.028519
  4 H s       :     0.689549  s :     0.689549
      pz      :     0.018879  p :     0.095753
      px      :     0.025969
      py      :     0.050904
  5 H s       :     0.805962  s :     0.805962
      pz      :     0.023018  p :     0.075701
      px      :     0.020820
      py      :     0.031864
  6 H s       :     0.807417  s :     0.807417
      pz      :     0.040843  p :     0.065326
      px      :     0.009430
      py      :     0.015053
  7 H s       :     0.809324  s :     0.809324
      pz      :     0.017457  p :     0.071771
      px      :     0.022602
      py      :     0.031711
  8 Pbs       :     3.696076  s :     3.696076
      pz      :     2.466326  p :     7.464168
      px      :     2.465520
      py      :     2.532322
      dz2     :     2.144632  d :    10.757736
      dxz     :     2.150798
      dyz     :     2.156212
      dx2y2   :     2.148163
      dxy     :     2.157932
      f0      :     0.040186  f :     0.255917
      f+1     :     0.036952
      f-1     :     0.034623
      f+2     :     0.036452
      f-2     :     0.029335
      f+3     :     0.049226
      f-3     :     0.029143
  9 Cls       :     5.750011  s :     5.750011
      pz      :     3.852346  p :    11.430949
      px      :     3.842966
      py      :     3.735637
      dz2     :     0.007183  d :     0.037426
      dxz     :     0.001468
      dyz     :     0.003032
      dx2y2   :     0.004239
      dxy     :     0.021504
      f0      :     0.000137  f :     0.002184
      f+1     :     0.000197
      f-1     :     0.000370
      f+2     :     0.000045
      f-2     :     0.000212
      f+3     :     0.000978
      f-3     :     0.000246
 10 Cls       :     5.679650  s :     5.679650
      pz      :     3.781020  p :    11.341011
      px      :     3.830439
      py      :     3.729552
      dz2     :     0.008096  d :     0.069081
      dxz     :     0.007173
      dyz     :     0.020542
      dx2y2   :     0.014958
      dxy     :     0.018312
      f0      :     0.000686  f :     0.004397
      f+1     :     0.000143
      f-1     :     0.000313
      f+2     :     0.000791
      f-2     :     0.001012
      f+3     :     0.001035
      f-3     :     0.000417
 11 Cls       :     5.744080  s :     5.744080
      pz      :     3.798031  p :    11.439820
      px      :     3.812622
      py      :     3.829167
      dz2     :     0.022219  d :     0.044889
      dxz     :     0.015274
      dyz     :     0.003974
      dx2y2   :     0.002313
      dxy     :     0.001108
      f0      :     0.000621  f :     0.002431
      f+1     :     0.001231
      f-1     :     0.000180
      f+2     :     0.000224
      f-2     :     0.000128
      f+3     :     0.000012
      f-3     :     0.000037


                      *****************************
                      * MAYER POPULATION ANALYSIS *
                      *****************************

  NA   - Mulliken gross atomic population
  ZA   - Total nuclear charge
  QA   - Mulliken gross atomic charge
  VA   - Mayer's total valence
  BVA  - Mayer's bonded valence
  FA   - Mayer's free valence

  ATOM       NA         ZA         QA         VA         BVA        FA
  0 C      6.3027     6.0000    -0.3027     3.8247     3.8247    -0.0000
  1 N      7.2220     7.0000    -0.2220     3.3944     3.3944     0.0000
  2 H      0.7395     1.0000     0.2605     1.0177     1.0177     0.0000
  3 H      0.7223     1.0000     0.2777     1.0014     1.0014    -0.0000
  4 H      0.7113     1.0000     0.2887     0.9118     0.9118     0.0000
  5 H      0.8355     1.0000     0.1645     0.9810     0.9810    -0.0000
  6 H      0.8297     1.0000     0.1703     0.9663     0.9663    -0.0000
  7 H      0.8368     1.0000     0.1632     0.9654     0.9654     0.0000
  8 Pb    21.1797    22.0000     0.8203     1.9216     1.9216    -0.0000
  9 Cl    17.5378    17.0000    -0.5378     0.7934     0.7934     0.0000
 10 Cl    17.5269    17.0000    -0.5269     0.7905     0.7905     0.0000
 11 Cl    17.5556    17.0000    -0.5556     0.7533     0.7533     0.0000

  Mayer bond orders larger than 0.1
B(  0-C ,  1-N ) :   0.9101 B(  0-C ,  5-H ) :   0.9619 B(  0-C ,  6-H ) :   0.9581 
B(  0-C ,  7-H ) :   0.9756 B(  1-N ,  2-H ) :   0.8494 B(  1-N ,  3-H ) :   0.8083 
B(  1-N ,  4-H ) :   0.8904 B(  2-H , 11-Cl) :   0.1663 B(  3-H , 10-Cl) :   0.1940 
B(  8-Pb,  9-Cl) :   0.7711 B(  8-Pb, 10-Cl) :   0.5530 B(  8-Pb, 11-Cl) :   0.5827 


-------
TIMINGS
-------

Total SCF time: 0 days 0 hours 7 min 35 sec 

Total time                  ....     455.681 sec
Sum of individual times     ....     430.431 sec  ( 94.5%)

Fock matrix formation       ....     425.350 sec  ( 93.3%)
  Coulomb formation         ....     352.734 sec  ( 82.9% of F)
  Split-RI-J                ....      24.934 sec  (  5.9% of F)
  Chain of spheres X        ....     352.037 sec  ( 82.8% of F)
  COS-X 1 center corr.      ....       0.000 sec  (  0.0% of F)
  XC integration            ....      72.638 sec  ( 17.1% of F)
    Basis function eval.    ....      21.711 sec  ( 29.9% of XC)
    Density eval.           ....      19.696 sec  ( 27.1% of XC)
    XC-Functional eval.     ....       4.367 sec  (  6.0% of XC)
    XC-Potential eval.      ....      25.630 sec  ( 35.3% of XC)
Diagonalization             ....       0.839 sec  (  0.2%)
Density matrix formation    ....       0.065 sec  (  0.0%)
Population analysis         ....       0.068 sec  (  0.0%)
Initial guess               ....       0.138 sec  (  0.0%)
Orbital Transformation      ....       0.000 sec  (  0.0%)
Orbital Orthonormalization  ....       0.135 sec  (  0.0%)
DIIS solution               ....       0.245 sec  (  0.1%)
SOSCF solution              ....       0.131 sec  (  0.0%)
Grid generation             ....       3.595 sec  (  0.8%)

------------------------------------------------------------------------------
                              ORCA MP2 CALCULATION
------------------------------------------------------------------------------


----------------------
RI-MP2 ENERGY+GRADIENT
----------------------
Dimension of the basis                    ...  259
Memory devoted to MP2                     ... 1000 MB   
Data format for buffers                   ... DOUBLE
Compression type for matrix containers    ... UNCOMPRESSED
Overall scaling of the MP2 energy         ...   2.700e-01 Eh
Calculating two index integrals           ... done (    0.011 sec)
Cholesky decomposition of the V-matrix    ... done
Cholesky decomposition of V**-1           ... done (    0.024 sec)

-----------------
RI-TRANSFORMATION (AUX index driven)
-----------------

Dimension of the orbital-basis         ... 259
Dimension of the aux-basis             ... 493
Transformation of internal MOs         ...    0-  45
Transformation of internal/external MOs...    0-  45 to   46- 258
Number Format for Storage              ... Double (8 Byte)
Integral mode                          ... Direct

First Phase: integral generation and transformation of MO indices
  Aux angular momentum 0               ... done (    0.410 sec)
  Aux angular momentum 1               ... done (    0.332 sec)
  Aux angular momentum 2               ... done (    0.397 sec)
  Aux angular momentum 3               ... done (    0.235 sec)
  Aux angular momentum 4               ... done (    0.207 sec)
Closing buffer VIJ ( 0.00 GB; CompressionRatio= 1.95)
Closing buffer VIA ( 0.04 GB; CompressionRatio= 1.00)
  Phase 1 completed in     1.673 sec
Second Phase: sorting and transformation of aux index

IJ-Transformation
Memory available                       ... 990 MB 
Max. # MO pairs treated in a batch     ... 46    
# of internal orbitals                 ... 46
# batches for internal orbitals        ... 1
Closing buffer IJV ( 0.00 GB; CompressionRatio= 1.00)
(ij|v) transformation done in     0.107 sec

IA-Transformation
Memory available                       ... 990 MB 
Max. # MO pairs treated in a batch     ... 46    
# of internal orbitals                 ... 46
# batches for internal orbitals        ... 1
Closing buffer IAV ( 0.04 GB; CompressionRatio= 1.00)
(ia|v) transformation done in     0.455 sec

  Phase 2 completed in     0.578 sec
RI-Integral transformation completed in     2.251 sec
Opening buffers                              ... done

Starting loop over batches of integrals:

Operator 0  - window                       ... (  0- 45)x( 46-258)
Operator 0  - Memory available             ...  1000 MB
Operator 0  - Memory needed per MO         ...   1.6 MB
Operator 0  - Number of orbitals per batch ... 46
Operator 0  - Number of batches            ... 1

OPERATOR  0   PASS   0:  MOs     0 ...   45
  Reading integrals       ... ok
  Internal MO   2
  Internal MO   5
  Internal MO   8
  Internal MO  11
  Internal MO  14
  Internal MO  17
  Internal MO  20
  Internal MO  23
  Internal MO  26
  Internal MO  29
  Internal MO  32
  Internal MO  35
  Internal MO  38
  Internal MO  41
  Internal MO  44
Closing buffer GIPV ( 0.04 GB; CompressionRatio= 1.00)
Time spent in pair loops =    56.283 sec

-----------------------------------------------
 RI-MP2 CORRELATION ENERGY:     -0.581363501 Eh
-----------------------------------------------


---------------------
MP2 DENSITY FORMATION
---------------------

Completing the external part of the density      ... done
Storing the unrelaxed density                    ... done

Calculating the xc-kernel                        ... done
Calculating G(D)                                 ... done
Completing the Lagrangian                        ... done
Solving the Z-vector equations                   ... 

------------------------------------------------------------------------------
                           ORCA CP-SCF CALCULATION
------------------------------------------------------------------------------

Input orbitals are from        ... PbMACl3_mp2_md_18.orca.gbw
Input Perturbation             ... PbMACl3_mp2_md_18.orca.pin.tmp
Wavefunction output            ... PbMACl3_mp2_md_18.orca.pout.tmp
Perturbation mode              ... Real perturbation
Solver                         ... DIIS
   MaxDIIS                     ... 20
   Levelshift                  ...    3.000e-01 Eh
Max. number of iterations      ... 128
Convergence tolerance          ... 1.000e-08
Integral handling              ... Direct
COSX GridX                     ... 1
Number of perturbations        ... 1
Number of operators            ... 1
Orbital ranges used for CP-SCF:
 Operator 0:  Orbitals   0... 45  to  46...258
DFT calculation                         ... on
Exchange functional (SCF)               ... B88
Exchange functional (CP-SCF)            ... B88
   X-Alpha parameter    XAlpha (SCF)    ...  0.666667
   X-Alpha parameter    XAlpha (CP-SCF) ...  0.666667
   Becke's b parameter  XBeta (SCF)     ...  0.004200
   Becke's b parameter  XBeta (CP-SCF)  ...  0.004200
Correlation functional (SCF)            ... LYP
Correlation functional (CP-SCF)         ... LYP
 LDA part of GGA corr.  LDAOpt (SCF)    ... VWN-3
 LDA part of GGA corr.  LDAOpt (CP-SCF) ... VWN-3
Hybrid DFT                              ... on
   Exchange mixing (SCF)                ...  0.530
   Exchange mixing (CP-SCF)             ...  0.530
   GGA exch. scaling(SCF)               ...  0.470
   GGA exch. scaling (CP-SCF)           ...  0.470
   GGA corr. scaling (SCF)              ...  0.730
   GGA corr. scaling (CP-SCF)           ...  0.730
The RIJCOSX approximation is active
Variables per vector in CP-SCF ... 9798
Number of vectors sought       ... 1
Calculating the xc-kernel      ... done

Solving the CP-SCF equations by a DIIS algorithm

-----------------
CP-SCF ITERATIONS
-----------------
  Iteration   0: MaxR=  0.085306686
  Iteration   1: MaxR=  0.038515763
  Iteration   2: MaxR=  0.012260367
  Iteration   3: MaxR=  0.005803115
  Iteration   4: MaxR=  0.003559510
  Iteration   5: MaxR=  0.001714494
  Iteration   6: MaxR=  0.000730286
  Iteration   7: MaxR=  0.000225013
  Iteration   8: MaxR=  0.000090730
  Iteration   9: MaxR=  0.000034004
  Iteration  10: MaxR=  0.000016696
  Iteration  11: MaxR=  0.000006476
  Iteration  12: MaxR=  0.000002794
  Iteration  13: MaxR=  0.000000984
  Iteration  14: MaxR=  0.000000361
  Iteration  15: MaxR=  0.000000136
  Iteration  16: MaxR=  0.000000044
  Iteration  17: MaxR=  0.000000017
  Iteration  18: MaxR=  0.000000007
                              *** THE CP-SCF HAS CONVERGED *** 
done
Finalizing the relaxed density                   ... done
Transforming P to the AO basis                   ... done
Storing the relaxed density                      ... done

------------------------------------
ENERGY WEIGHTED DENSITY FINALIZATION
------------------------------------

Gathering the parts of the W-matrix              ... done
Forming the Z-density                            ... done
Transforming Z to the AO basis                   ... done
Calculating G(Z)                                 ... done
Finalizing the W-matrix                          ... done
Transforming W to the AO basis and storing       ... done
Entering the RIJONX and RIJCOSX sections
Starting the three-index derivative integrals:
Operator 0  - Memory available             ...  1000 MB
Operator 0  - Memory needed per MO         ...   1.0 MB
Operator 0  - Number of orbitals per batch ... 46
Operator 0  - Number of batches            ... 1

OPERATOR  0   PASS   0:  MOs     0 ...   45

----------------------------------
MP2 DERIVATIVE INTEGRAL GENERATION
----------------------------------


Input Correlated Electron Density   ... PbMACl3_mp2_md_18.orca.pmp2re
Input Energy Weighted Density       ... PbMACl3_mp2_md_18.orca.wmp2.tmp
Input SCF Electron Density          ... PbMACl3_mp2_md_18.orca.scfp.tmp

One-Electron Terms    ...
  ECP gradient                                           ... One-Electron Terms done

-----------------------------------------------------------
MP2 COSX Grid Generation
-----------------------------------------------------------

General Integration Accuracy     IntAcc      ...  4.340
Radial Grid Type                 RadialGrid  ... Gauss-Chebyshev
Angular Grid (max. acc.)         AngularGrid ... Lebedev-302
Angular grid pruning method      GridPruning ... 3 (G Style)
Weight generation scheme         WeightScheme... Becke
Basis function cutoff            BFCut       ...    1.0000e-11
Integration weight cutoff        WCut        ...    1.0000e-14
Grids for H and He will be reduced by one unit

# of grid points (after initial pruning)     ...  57718 (   0.0 sec)
# of grid points (after weights+screening)   ...  54273 (   0.1 sec)
nearest neighbour list constructed           ...    0.0 sec
Grid point re-assignment to atoms done       ...    0.0 sec
Grid point division into batches done        ...    0.3 sec
Reduced shell lists constructed in    1.1 sec

Total number of grid points                  ...    54273
Total number of batches                      ...      853
Average number of points per batch           ...       63
Average number of grid points per atom       ...     4523
Average number of shells per batch           ...    55.55 (55.00%)
Average number of basis functions per batch  ...   146.82 (56.69%)
Average number of large shells per batch     ...    42.30 (76.14%)
Average number of large basis fcns per batch ...   109.92 (74.87%)
Maximum spatial batch extension              ...  39.07, 26.25, 37.84 au
Average spatial batch extension              ...   3.30,  2.91,  3.20 au

Overlap Fitting                  UseSFitting ... on
Two electron COSX terms .... 
Integration Timings:
Total Time                  =   105.5 sec
Basis fcn evaluation        =     0.3 sec
Density evaluation          =     1.1 sec
Integral evaluation         =   101.9 sec
K(P) evaluation             =     0.9 sec
                          .... COSX two electron terms done
COSX two-electron contribution to the gradient
     0:    -0.131301     0.021658     0.027033
     1:     0.026195    -0.014463     0.002648
     2:    -0.075796    -0.156890     0.096824
     3:     0.039371    -0.028492    -0.174869
     4:    -0.087388     0.191913     0.016366
     5:     0.091088    -0.111374    -0.087072
     6:     0.020056     0.000522     0.173093
     7:     0.116237     0.113202    -0.050814
     8:    -0.018128     0.030868     0.000070
     9:     0.038158    -0.067136    -0.017329
    10:     0.013040     0.031812    -0.031502
    11:    -0.032292    -0.011755     0.045587
Exchange-correlation gradient    ... done
Dispersion correction            ... 
Entering the calculation of the dispersion correction...

Checking the input atom types...

Done
done

                *********************************************
                * UNRELAXED MP2 DENSITY POPULATION ANALYSIS *
                *********************************************

------------------------------------------------------------------------------
                           ORCA POPULATION ANALYSIS
------------------------------------------------------------------------------
Input electron density              ... PbMACl3_mp2_md_18.orca.pmp2ur
BaseName (.gbw .S,...)              ... PbMACl3_mp2_md_18.orca

                    ********************************
                    * MULLIKEN POPULATION ANALYSIS *
                    ********************************

-----------------------
MULLIKEN ATOMIC CHARGES
-----------------------
   0 C :   -0.307529
   1 N :   -0.221395
   2 H :    0.259672
   3 H :    0.276779
   4 H :    0.288668
   5 H :    0.165170
   6 H :    0.171305
   7 H :    0.164216
   8 Pb:    0.804085
   9 Cl:   -0.530607
  10 Cl:   -0.521124
  11 Cl:   -0.549241
Sum of atomic charges:    0.0000000

--------------------------------
MULLIKEN REDUCED ORBITAL CHARGES
--------------------------------
  0 C s       :     3.239008  s :     3.239008
      pz      :     1.052182  p :     2.985867
      px      :     0.777740
      py      :     1.155946
      dz2     :     0.018744  d :     0.074460
      dxz     :     0.013319
      dyz     :     0.009469
      dx2y2   :     0.010179
      dxy     :     0.022748
      f0      :     0.001727  f :     0.008194
      f+1     :     0.001615
      f-1     :     0.000239
      f+2     :     0.001073
      f-2     :     0.000967
      f+3     :     0.001342
      f-3     :     0.001231
  1 N s       :     3.405184  s :     3.405184
      pz      :     1.283198  p :     3.754821
      px      :     1.231332
      py      :     1.240290
      dz2     :     0.014331  d :     0.057634
      dxz     :     0.009681
      dyz     :     0.005314
      dx2y2   :     0.008947
      dxy     :     0.019361
      f0      :     0.000680  f :     0.003756
      f+1     :     0.000686
      f-1     :     0.000288
      f+2     :     0.000250
      f-2     :     0.000471
      f+3     :     0.000872
      f-3     :     0.000508
  2 H s       :     0.698531  s :     0.698531
      pz      :     0.011182  p :     0.041797
      px      :     0.009577
      py      :     0.021037
  3 H s       :     0.675237  s :     0.675237
      pz      :     0.028101  p :     0.047983
      px      :     0.010245
      py      :     0.009638
  4 H s       :     0.678420  s :     0.678420
      pz      :     0.006232  p :     0.032911
      px      :     0.009387
      py      :     0.017293
  5 H s       :     0.807139  s :     0.807139
      pz      :     0.007987  p :     0.027690
      px      :     0.008356
      py      :     0.011347
  6 H s       :     0.805241  s :     0.805241
      pz      :     0.015253  p :     0.023454
      px      :     0.003191
      py      :     0.005010
  7 H s       :     0.810399  s :     0.810399
      pz      :     0.005580  p :     0.025385
      px      :     0.008524
      py      :     0.011282
  8 Pbs       :     3.944389  s :     3.944389
      pz      :     2.313718  p :     6.996106
      px      :     2.350476
      py      :     2.331912
      dz2     :     2.024402  d :    10.140787
      dxz     :     2.029329
      dyz     :     2.028609
      dx2y2   :     2.030980
      dxy     :     2.027467
      f0      :     0.017565  f :     0.114633
      f+1     :     0.014853
      f-1     :     0.017342
      f+2     :     0.014880
      f-2     :     0.014887
      f+3     :     0.019052
      f-3     :     0.016053
  9 Cls       :     5.946924  s :     5.946924
      pz      :     3.889944  p :    11.523008
      px      :     3.877039
      py      :     3.756025
      dz2     :     0.010402  d :     0.057069
      dxz     :     0.008858
      dyz     :     0.010576
      dx2y2   :     0.011721
      dxy     :     0.015512
      f0      :     0.000461  f :     0.003606
      f+1     :     0.000435
      f-1     :     0.000510
      f+2     :     0.000429
      f-2     :     0.000512
      f+3     :     0.000685
      f-3     :     0.000575
 10 Cls       :     5.944125  s :     5.944125
      pz      :     3.849994  p :    11.502552
      px      :     3.884924
      py      :     3.767634
      dz2     :     0.013161  d :     0.070146
      dxz     :     0.012227
      dyz     :     0.016472
      dx2y2   :     0.013785
      dxy     :     0.014501
      f0      :     0.000580  f :     0.004301
      f+1     :     0.000482
      f-1     :     0.000616
      f+2     :     0.000661
      f-2     :     0.000695
      f+3     :     0.000670
      f-3     :     0.000597
 11 Cls       :     5.947761  s :     5.947761
      pz      :     3.822781  p :    11.538234
      px      :     3.844927
      py      :     3.870527
      dz2     :     0.015861  d :     0.059684
      dxz     :     0.014578
      dyz     :     0.011128
      dx2y2   :     0.009388
      dxy     :     0.008729
      f0      :     0.000609  f :     0.003561
      f+1     :     0.000731
      f-1     :     0.000481
      f+2     :     0.000500
      f-2     :     0.000474
      f+3     :     0.000380
      f-3     :     0.000387


                     *******************************
                     * LOEWDIN POPULATION ANALYSIS *
                     *******************************

----------------------
LOEWDIN ATOMIC CHARGES
----------------------
   0 C :   -0.314465
   1 N :    0.161570
   2 H :    0.150851
   3 H :    0.138079
   4 H :    0.214621
   5 H :    0.118770
   6 H :    0.127964
   7 H :    0.119552
   8 Pb:   -0.184852
   9 Cl:   -0.214891
  10 Cl:   -0.090743
  11 Cl:   -0.226455

-------------------------------
LOEWDIN REDUCED ORBITAL CHARGES
-------------------------------
  0 C s       :     2.809867  s :     2.809867
      pz      :     1.070078  p :     3.118433
      px      :     0.903663
      py      :     1.144692
      dz2     :     0.088082  d :     0.339251
      dxz     :     0.077391
      dyz     :     0.024009
      dx2y2   :     0.051768
      dxy     :     0.098001
      f0      :     0.005040  f :     0.046914
      f+1     :     0.008963
      f-1     :     0.000590
      f+2     :     0.008877
      f-2     :     0.009830
      f+3     :     0.007293
      f-3     :     0.006322
  1 N s       :     2.942569  s :     2.942569
      pz      :     1.245207  p :     3.688720
      px      :     1.249982
      py      :     1.193531
      dz2     :     0.050398  d :     0.192262
      dxz     :     0.033048
      dyz     :     0.016777
      dx2y2   :     0.028407
      dxy     :     0.063631
      f0      :     0.001443  f :     0.014879
      f+1     :     0.003132
      f-1     :     0.000901
      f+2     :     0.002213
      f-2     :     0.002364
      f+3     :     0.002743
      f-3     :     0.002084
  2 H s       :     0.716513  s :     0.716513
      pz      :     0.037428  p :     0.132636
      px      :     0.031168
      py      :     0.064040
  3 H s       :     0.710745  s :     0.710745
      pz      :     0.089793  p :     0.151175
      px      :     0.032484
      py      :     0.028899
  4 H s       :     0.688245  s :     0.688245
      pz      :     0.019214  p :     0.097134
      px      :     0.026402
      py      :     0.051519
  5 H s       :     0.803543  s :     0.803543
      pz      :     0.023623  p :     0.077688
      px      :     0.021463
      py      :     0.032601
  6 H s       :     0.804941  s :     0.804941
      pz      :     0.041757  p :     0.067096
      px      :     0.009886
      py      :     0.015452
  7 H s       :     0.806822  s :     0.806822
      pz      :     0.017949  p :     0.073627
      px      :     0.023235
      py      :     0.032442
  8 Pbs       :     3.677776  s :     3.677776
      pz      :     2.475398  p :     7.489667
      px      :     2.474581
      py      :     2.539688
      dz2     :     2.138488  d :    10.725825
      dxz     :     2.143832
      dyz     :     2.149975
      dx2y2   :     2.141711
      dxy     :     2.151818
      f0      :     0.045223  f :     0.291584
      f+1     :     0.041953
      f-1     :     0.039818
      f+2     :     0.041468
      f-2     :     0.034603
      f+3     :     0.054125
      f-3     :     0.034394
  9 Cls       :     5.745531  s :     5.745531
      pz      :     3.838174  p :    11.388456
      px      :     3.828740
      py      :     3.721543
      dz2     :     0.014833  d :     0.075963
      dxz     :     0.009158
      dyz     :     0.010735
      dx2y2   :     0.012024
      dxy     :     0.029214
      f0      :     0.000520  f :     0.004941
      f+1     :     0.000575
      f-1     :     0.000759
      f+2     :     0.000431
      f-2     :     0.000608
      f+3     :     0.001392
      f-3     :     0.000656
 10 Cls       :     5.675468  s :     5.675468
      pz      :     3.766882  p :    11.298959
      px      :     3.816260
      py      :     3.715817
      dz2     :     0.016090  d :     0.108955
      dxz     :     0.015121
      dyz     :     0.028546
      dx2y2   :     0.022959
      dxy     :     0.026239
      f0      :     0.001104  f :     0.007360
      f+1     :     0.000547
      f-1     :     0.000750
      f+2     :     0.001219
      f-2     :     0.001440
      f+3     :     0.001457
      f-3     :     0.000843
 11 Cls       :     5.739691  s :     5.739691
      pz      :     3.783945  p :    11.397367
      px      :     3.798552
      py      :     3.814870
      dz2     :     0.030032  d :     0.084158
      dxz     :     0.023123
      dyz     :     0.011905
      dx2y2   :     0.010162
      dxy     :     0.008936
      f0      :     0.001041  f :     0.005238
      f+1     :     0.001653
      f-1     :     0.000592
      f+2     :     0.000625
      f-2     :     0.000524
      f+3     :     0.000388
      f-3     :     0.000415


                      *****************************
                      * MAYER POPULATION ANALYSIS *
                      *****************************

  NA   - Mulliken gross atomic population
  ZA   - Total nuclear charge
  QA   - Mulliken gross atomic charge
  VA   - Mayer's total valence
  BVA  - Mayer's bonded valence
  FA   - Mayer's free valence

  ATOM       NA         ZA         QA         VA         BVA        FA
  0 C      6.3075     6.0000    -0.3075     3.8729     3.7590     0.1139
  1 N      7.2214     7.0000    -0.2214     3.4607     3.3316     0.1291
  2 H      0.7403     1.0000     0.2597     1.0202     1.0013     0.0190
  3 H      0.7232     1.0000     0.2768     1.0036     0.9844     0.0192
  4 H      0.7113     1.0000     0.2887     0.9138     0.8957     0.0181
  5 H      0.8348     1.0000     0.1652     0.9837     0.9649     0.0188
  6 H      0.8287     1.0000     0.1713     0.9687     0.9511     0.0176
  7 H      0.8358     1.0000     0.1642     0.9679     0.9504     0.0175
  8 Pb    21.1959    22.0000     0.8041     2.2420     1.8634     0.3786
  9 Cl    17.5306    17.0000    -0.5306     1.0320     0.7678     0.2642
 10 Cl    17.5211    17.0000    -0.5211     1.0283     0.7671     0.2611
 11 Cl    17.5492    17.0000    -0.5492     0.9936     0.7307     0.2629

  Mayer bond orders larger than 0.1
B(  0-C ,  1-N ) :   0.8893 B(  0-C ,  5-H ) :   0.9468 B(  0-C ,  6-H ) :   0.9437 
B(  0-C ,  7-H ) :   0.9613 B(  1-N ,  2-H ) :   0.8366 B(  1-N ,  3-H ) :   0.7954 
B(  1-N ,  4-H ) :   0.8751 B(  2-H , 11-Cl) :   0.1630 B(  3-H , 10-Cl) :   0.1904 
B(  8-Pb,  9-Cl) :   0.7471 B(  8-Pb, 10-Cl) :   0.5364 B(  8-Pb, 11-Cl) :   0.5651 



                *******************************************
                * RELAXED MP2 DENSITY POPULATION ANALYSIS *
                *******************************************

------------------------------------------------------------------------------
                           ORCA POPULATION ANALYSIS
------------------------------------------------------------------------------
Input electron density              ... PbMACl3_mp2_md_18.orca.pmp2re
BaseName (.gbw .S,...)              ... PbMACl3_mp2_md_18.orca

                    ********************************
                    * MULLIKEN POPULATION ANALYSIS *
                    ********************************

-----------------------
MULLIKEN ATOMIC CHARGES
-----------------------
   0 C :   -0.327843
   1 N :   -0.217863
   2 H :    0.254614
   3 H :    0.269810
   4 H :    0.287459
   5 H :    0.169391
   6 H :    0.174258
   7 H :    0.168853
   8 Pb:    0.747193
   9 Cl:   -0.505190
  10 Cl:   -0.496279
  11 Cl:   -0.524403
Sum of atomic charges:    0.0000000

--------------------------------
MULLIKEN REDUCED ORBITAL CHARGES
--------------------------------
  0 C s       :     3.242597  s :     3.242597
      pz      :     1.059465  p :     3.006482
      px      :     0.785260
      py      :     1.161757
      dz2     :     0.017335  d :     0.070725
      dxz     :     0.012898
      dyz     :     0.009170
      dx2y2   :     0.009660
      dxy     :     0.021663
      f0      :     0.001679  f :     0.008038
      f+1     :     0.001604
      f-1     :     0.000240
      f+2     :     0.001040
      f-2     :     0.000940
      f+3     :     0.001307
      f-3     :     0.001227
  1 N s       :     3.405966  s :     3.405966
      pz      :     1.282430  p :     3.752135
      px      :     1.228225
      py      :     1.241480
      dz2     :     0.014006  d :     0.056074
      dxz     :     0.009297
      dyz     :     0.005171
      dx2y2   :     0.008510
      dxy     :     0.019091
      f0      :     0.000659  f :     0.003688
      f+1     :     0.000685
      f-1     :     0.000282
      f+2     :     0.000238
      f-2     :     0.000467
      f+3     :     0.000849
      f-3     :     0.000508
  2 H s       :     0.703970  s :     0.703970
      pz      :     0.011137  p :     0.041417
      px      :     0.009556
      py      :     0.020724
  3 H s       :     0.682624  s :     0.682624
      pz      :     0.027546  p :     0.047567
      px      :     0.010312
      py      :     0.009709
  4 H s       :     0.679992  s :     0.679992
      pz      :     0.006350  p :     0.032549
      px      :     0.009364
      py      :     0.016836
  5 H s       :     0.803262  s :     0.803262
      pz      :     0.007932  p :     0.027347
      px      :     0.008227
      py      :     0.011188
  6 H s       :     0.802641  s :     0.802641
      pz      :     0.014722  p :     0.023101
      px      :     0.003274
      py      :     0.005105
  7 H s       :     0.806145  s :     0.806145
      pz      :     0.005604  p :     0.025002
      px      :     0.008320
      py      :     0.011077
  8 Pbs       :     3.953300  s :     3.953300
      pz      :     2.333244  p :     7.047387
      px      :     2.360760
      py      :     2.353382
      dz2     :     2.023328  d :    10.139730
      dxz     :     2.028917
      dyz     :     2.029791
      dx2y2   :     2.031447
      dxy     :     2.026246
      f0      :     0.017200  f :     0.112391
      f+1     :     0.014437
      f-1     :     0.017075
      f+2     :     0.014673
      f-2     :     0.014670
      f+3     :     0.018531
      f-3     :     0.015805
  9 Cls       :     5.947883  s :     5.947883
      pz      :     3.881595  p :    11.496708
      px      :     3.867363
      py      :     3.747751
      dz2     :     0.010423  d :     0.056983
      dxz     :     0.008861
      dyz     :     0.010489
      dx2y2   :     0.011607
      dxy     :     0.015604
      f0      :     0.000462  f :     0.003615
      f+1     :     0.000435
      f-1     :     0.000511
      f+2     :     0.000429
      f-2     :     0.000515
      f+3     :     0.000682
      f-3     :     0.000580
 10 Cls       :     5.944297  s :     5.944297
      pz      :     3.841787  p :    11.476851
      px      :     3.876132
      py      :     3.758932
      dz2     :     0.013275  d :     0.070813
      dxz     :     0.012312
      dyz     :     0.016514
      dx2y2   :     0.013944
      dxy     :     0.014768
      f0      :     0.000581  f :     0.004319
      f+1     :     0.000484
      f-1     :     0.000622
      f+2     :     0.000661
      f-2     :     0.000700
      f+3     :     0.000669
      f-3     :     0.000601
 11 Cls       :     5.948466  s :     5.948466
      pz      :     3.814646  p :    11.512583
      px      :     3.837495
      py      :     3.860442
      dz2     :     0.016055  d :     0.059783
      dxz     :     0.014467
      dyz     :     0.011163
      dx2y2   :     0.009362
      dxy     :     0.008736
      f0      :     0.000611  f :     0.003570
      f+1     :     0.000728
      f-1     :     0.000485
      f+2     :     0.000501
      f-2     :     0.000477
      f+3     :     0.000380
      f-3     :     0.000388


                     *******************************
                     * LOEWDIN POPULATION ANALYSIS *
                     *******************************

----------------------
LOEWDIN ATOMIC CHARGES
----------------------
   0 C :   -0.323952
   1 N :    0.157430
   2 H :    0.149711
   3 H :    0.136323
   4 H :    0.215073
   5 H :    0.120706
   6 H :    0.129747
   7 H :    0.121343
   8 Pb:   -0.216363
   9 Cl:   -0.198099
  10 Cl:   -0.079702
  11 Cl:   -0.212219

-------------------------------
LOEWDIN REDUCED ORBITAL CHARGES
-------------------------------
  0 C s       :     2.811314  s :     2.811314
      pz      :     1.073708  p :     3.130860
      px      :     0.908013
      py      :     1.149139
      dz2     :     0.086775  d :     0.335128
      dxz     :     0.076807
      dyz     :     0.023714
      dx2y2   :     0.050979
      dxy     :     0.096853
      f0      :     0.004985  f :     0.046650
      f+1     :     0.008903
      f-1     :     0.000586
      f+2     :     0.008836
      f-2     :     0.009811
      f+3     :     0.007250
      f-3     :     0.006279
  1 N s       :     2.944107  s :     2.944107
      pz      :     1.246430  p :     3.691506
      px      :     1.249660
      py      :     1.195415
      dz2     :     0.050342  d :     0.192011
      dxz     :     0.033022
      dyz     :     0.016814
      dx2y2   :     0.028287
      dxy     :     0.063546
      f0      :     0.001446  f :     0.014946
      f+1     :     0.003148
      f-1     :     0.000904
      f+2     :     0.002234
      f-2     :     0.002380
      f+3     :     0.002748
      f-3     :     0.002086
  2 H s       :     0.717532  s :     0.717532
      pz      :     0.037483  p :     0.132756
      px      :     0.031204
      py      :     0.064069
  3 H s       :     0.712434  s :     0.712434
      pz      :     0.089665  p :     0.151243
      px      :     0.032548
      py      :     0.029031
  4 H s       :     0.687970  s :     0.687970
      pz      :     0.019409  p :     0.096957
      px      :     0.026417
      py      :     0.051130
  5 H s       :     0.801235  s :     0.801235
      pz      :     0.023777  p :     0.078059
      px      :     0.021528
      py      :     0.032754
  6 H s       :     0.803046  s :     0.803046
      pz      :     0.041473  p :     0.067207
      px      :     0.010096
      py      :     0.015639
  7 H s       :     0.804829  s :     0.804829
      pz      :     0.018111  p :     0.073828
      px      :     0.023222
      py      :     0.032496
  8 Pbs       :     3.687716  s :     3.687716
      pz      :     2.488460  p :     7.521854
      px      :     2.480007
      py      :     2.553386
      dz2     :     2.136347  d :    10.718494
      dxz     :     2.141882
      dyz     :     2.149731
      dx2y2   :     2.141045
      dxy     :     2.149489
      f0      :     0.044863  f :     0.288299
      f+1     :     0.041328
      f-1     :     0.039352
      f+2     :     0.041008
      f-2     :     0.034150
      f+3     :     0.053690
      f-3     :     0.033909
  9 Cls       :     5.748625  s :     5.748625
      pz      :     3.831283  p :    11.367651
      px      :     3.820706
      py      :     3.715662
      dz2     :     0.014991  d :     0.076808
      dxz     :     0.009226
      dyz     :     0.010797
      dx2y2   :     0.012128
      dxy     :     0.029665
      f0      :     0.000528  f :     0.005015
      f+1     :     0.000579
      f-1     :     0.000770
      f+2     :     0.000433
      f-2     :     0.000621
      f+3     :     0.001423
      f-3     :     0.000662
 10 Cls       :     5.678784  s :     5.678784
      pz      :     3.761348  p :    11.282385
      px      :     3.809850
      py      :     3.711187
      dz2     :     0.016277  d :     0.111037
      dxz     :     0.015336
      dyz     :     0.029248
      dx2y2   :     0.023631
      dxy     :     0.026546
      f0      :     0.001124  f :     0.007497
      f+1     :     0.000550
      f-1     :     0.000764
      f+2     :     0.001254
      f-2     :     0.001466
      f+3     :     0.001471
      f-3     :     0.000868
 11 Cls       :     5.742697  s :     5.742697
      pz      :     3.778186  p :    11.379130
      px      :     3.792945
      py      :     3.807999
      dz2     :     0.030295  d :     0.085084
      dxz     :     0.023557
      dyz     :     0.012044
      dx2y2   :     0.010209
      dxy     :     0.008978
      f0      :     0.001043  f :     0.005308
      f+1     :     0.001689
      f-1     :     0.000601
      f+2     :     0.000637
      f-2     :     0.000532
      f+3     :     0.000389
      f-3     :     0.000417


                      *****************************
                      * MAYER POPULATION ANALYSIS *
                      *****************************

  NA   - Mulliken gross atomic population
  ZA   - Total nuclear charge
  QA   - Mulliken gross atomic charge
  VA   - Mayer's total valence
  BVA  - Mayer's bonded valence
  FA   - Mayer's free valence

  ATOM       NA         ZA         QA         VA         BVA        FA
  0 C      6.3278     6.0000    -0.3278     3.8709     3.7572     0.1137
  1 N      7.2179     7.0000    -0.2179     3.4604     3.3316     0.1288
  2 H      0.7454     1.0000     0.2546     1.0277     1.0089     0.0188
  3 H      0.7302     1.0000     0.2698     1.0120     0.9929     0.0191
  4 H      0.7125     1.0000     0.2875     0.9143     0.8963     0.0180
  5 H      0.8306     1.0000     0.1694     0.9862     0.9675     0.0187
  6 H      0.8257     1.0000     0.1743     0.9686     0.9511     0.0175
  7 H      0.8311     1.0000     0.1689     0.9661     0.9487     0.0175
  8 Pb    21.2528    22.0000     0.7472     2.3323     1.9599     0.3723
  9 Cl    17.5052    17.0000    -0.5052     1.0784     0.8161     0.2623
 10 Cl    17.4963    17.0000    -0.4963     1.0766     0.8169     0.2597
 11 Cl    17.5244    17.0000    -0.5244     1.0403     0.7789     0.2613

  Mayer bond orders larger than 0.1
B(  0-C ,  1-N ) :   0.8971 B(  0-C ,  5-H ) :   0.9423 B(  0-C ,  6-H ) :   0.9410 
B(  0-C ,  7-H ) :   0.9578 B(  1-N ,  2-H ) :   0.8327 B(  1-N ,  3-H ) :   0.7903 
B(  1-N ,  4-H ) :   0.8735 B(  2-H , 11-Cl) :   0.1741 B(  3-H , 10-Cl) :   0.2033 
B(  8-Pb,  9-Cl) :   0.7885 B(  8-Pb, 10-Cl) :   0.5594 B(  8-Pb, 11-Cl) :   0.5943 



-------
TIMINGS
-------

Total time                :  562.468 sec
Integral trafo            :    2.259 sec (  0.4%)
I/O of integrals          :    0.111 sec (  0.0%)
K(i,j) Operators          :    9.186 sec (  1.6%)
T(i,j) pair energies      :    1.347 sec (  0.2%)
V-calculation             :    0.011 sec (  0.0%)
V**(-1/2)                 :    0.024 sec (  0.0%)
Gamma(ia|P)               :    8.861 sec (  1.6%)
Gamma-Trafo               :    1.071 sec (  0.2%)
D(virtual)                :    3.728 sec (  0.7%)
D(internal)               :    4.185 sec (  0.7%)
W(virtual)                :    7.473 sec (  1.3%)
W(internal)               :   14.593 sec (  2.6%)
L(virtual)                :    5.111 sec (  0.9%)
L(internal)               :    0.253 sec (  0.0%)
G(D)                      :   14.756 sec (  2.6%)
G(Z)                      :   15.689 sec (  2.8%)
Z-Vector Solution         :  347.183 sec ( 61.7%)
Z-Vector Solution         :  347.183 sec ( 61.7%)
3-Index Derivative 
+ Separable RIJ part      :    4.660 sec (  0.8%)
2-Index Derivative 
+ Separable RIJ part      :    0.037 sec (  0.0%)
Separable Gradient (COSX) :  119.306 sec ( 21.2%)


---------------------------------------
MP2 TOTAL ENERGY:    -1669.533964025 Eh
---------------------------------------

The final MP2 gradient
  0:  -0.04243169   0.00928372  -0.01444128
  1:   0.00505314  -0.09560022  -0.01451175
  2:   0.04374510   0.05054435  -0.02268378
  3:  -0.00019539   0.01168720   0.03548207
  4:   0.00964894   0.02197693   0.00179291
  5:  -0.02141363   0.03324796  -0.00780892
  6:   0.01099964   0.00612959  -0.00311098
  7:  -0.00092739  -0.03903149   0.01098566
  8:   0.03613158   0.07009867   0.01691163
  9:  -0.01677711   0.01113448  -0.00138679
 10:  -0.03363231  -0.06287006   0.03533441
 11:   0.00904428  -0.01670567  -0.03665262

-----------------------------------
NORM OF THE MP2 GRADIENT:  0.191875
-----------------------------------

Entering the calculation of the dispersion correction...

Checking the input atom types...

Done


-------------------------------------------------------------------------------
                          DFT DISPERSION CORRECTION                            
                                                                               
                                DFTD3 V2.1  Rev 6                               
                          USING Becke-Johnson damping                          
-------------------------------------------------------------------------------
The B2PLYP functional is recognized
Active option DFTDOPT                   ...         4   

molecular C6(AA) [au] = 4866.986705 


            DFT-D V3
 parameters
 s6 scaling factor         :     0.6400 
 a1 scaling factor         :     0.3065 
 s8 scaling factor         :     0.9147 
 a2 scaling factor         :     5.0570 
 ad hoc parameters k1-k3   :    16.0000     1.3333    -4.0000 

 Edisp/kcal,au: -8.469754269141  -0.013497411140 
 E6   /kcal   :  -3.853972064 
 E8   /kcal   :  -4.615782205 
 % E8         :  54.497238744 

-------------------------   ----------------
Dispersion correction           -0.013497411
-------------------------   ----------------


-------------------------   --------------------
FINAL SINGLE POINT ENERGY     -1669.547461435828
-------------------------   --------------------


                            ***************************************
                            *     ORCA property calculations      *
                            ***************************************


  WARNING: The energy has been calculated at the MP2 level but the densities
           used in the property calculations are still SCF densities
           MP2 response densities have not been calculated 
           use %mp2 Density relaxed end
           or  %mp2 Density unrelaxed end

                                    ---------------------
                                    Active property flags
                                    ---------------------
   (+) Dipole Moment


------------------------------------------------------------------------------
                       ORCA ELECTRIC PROPERTIES CALCULATION
------------------------------------------------------------------------------

Dipole Moment Calculation                       ... on
Quadrupole Moment Calculation                   ... off
Polarizability Calculation                      ... off
GBWName                                         ... PbMACl3_mp2_md_18.orca.gbw
Electron density file                           ... PbMACl3_mp2_md_18.orca.scfp.tmp

-------------
DIPOLE MOMENT
-------------
                                X             Y             Z
Electronic contribution:    -16.65531     -66.17197     -39.64478
Nuclear contribution   :     15.64358      70.88864      40.67892
                        -----------------------------------------
Total Dipole Moment    :     -1.01173       4.71667       1.03414
                        -----------------------------------------
Magnitude (a.u.)       :      4.93356
Magnitude (Debye)      :     12.54011


                         *** MP2 UNRELAXED DENSITY ***

------------------------------------------------------------------------------
                       ORCA ELECTRIC PROPERTIES CALCULATION
------------------------------------------------------------------------------

Dipole Moment Calculation                       ... on
Quadrupole Moment Calculation                   ... off
Polarizability Calculation                      ... off
GBWName                                         ... PbMACl3_mp2_md_18.orca.gbw
Electron density file                           ... PbMACl3_mp2_md_18.orca.pmp2ur

-------------
DIPOLE MOMENT
-------------
                                X             Y             Z
Electronic contribution:    -16.65028     -66.19311     -39.64614
Nuclear contribution   :     15.64358      70.88864      40.67892
                        -----------------------------------------
Total Dipole Moment    :     -1.00671       4.69552       1.03277
                        -----------------------------------------
Magnitude (a.u.)       :      4.91203
Magnitude (Debye)      :     12.48538


                           *** MP2 RELAXED DENSITY ***

------------------------------------------------------------------------------
                       ORCA ELECTRIC PROPERTIES CALCULATION
------------------------------------------------------------------------------

Dipole Moment Calculation                       ... on
Quadrupole Moment Calculation                   ... off
Polarizability Calculation                      ... off
GBWName                                         ... PbMACl3_mp2_md_18.orca.gbw
Electron density file                           ... PbMACl3_mp2_md_18.orca.pmp2re

-------------
DIPOLE MOMENT
-------------
                                X             Y             Z
Electronic contribution:    -16.65753     -66.28647     -39.67366
Nuclear contribution   :     15.64358      70.88864      40.67892
                        -----------------------------------------
Total Dipole Moment    :     -1.01395       4.60217       1.00526
                        -----------------------------------------
Magnitude (a.u.)       :      4.81857
Magnitude (Debye)      :     12.24782


Timings for individual modules:

Sum of individual times         ...     1033.558 sec (=  17.226 min)
GTO integral calculation        ...        9.745 sec (=   0.162 min)   0.9 %
SCF iterations                  ...      460.184 sec (=   7.670 min)  44.5 %
MP2 module                      ...      563.629 sec (=   9.394 min)  54.5 %
                             ****ORCA TERMINATED NORMALLY****
TOTAL RUN TIME: 0 days 0 hours 17 minutes 15 seconds 17 msec
