
                                 *****************
                                 * O   R   C   A *
                                 *****************

           --- An Ab Initio, DFT and Semiempirical electronic structure package ---

                  #######################################################
                  #                        -***-                        #
                  #  Department of molecular theory and spectroscopy    #
                  #              Directorship: Frank Neese              #
                  # Max Planck Institute for Chemical Energy Conversion #
                  #                  D-45470 Muelheim/Ruhr              #
                  #                       Germany                       #
                  #                                                     #
                  #                  All rights reserved                #
                  #                        -***-                        #
                  #######################################################


                         Program Version 3.0.3 - RELEASE   -


 With contributions from (in alphabetic order):
   Ute Becker             : Parallelization
   Dmytro Bykov           : SCF Hessian
   Dmitry Ganyushin       : Spin-Orbit,Spin-Spin,Magnetic field MRCI
   Andreas Hansen         : Spin unrestricted coupled pair/coupled cluster methods
   Dimitrios Liakos       : Extrapolation schemes; parallel MDCI
   Robert Izsak           : Overlap fitted RIJCOSX, COSX-SCS-MP3
   Christian Kollmar      : KDIIS, OOCD, Brueckner-CCSD(T), CCSD density
   Simone Kossmann        : Meta GGA functionals, TD-DFT gradient, OOMP2, MP2 Hessian
   Taras Petrenko         : DFT Hessian,TD-DFT gradient, ASA and ECA modules, normal mode analysis, Resonance Raman, ABS, FL, XAS/XES, NRVS
   Christoph Reimann      : Effective Core Potentials
   Michael Roemelt        : Restricted open shell CIS
   Christoph Riplinger    : Improved optimizer, TS searches, QM/MM, DLPNO-CCSD
   Barbara Sandhoefer     : DKH picture change effects
   Igor Schapiro          : Molecular dynamics
   Kantharuban Sivalingam : CASSCF convergence, NEVPT2
   Boris Wezisla          : Elementary symmetry handling
   Frank Wennmohs         : Technical directorship


 We gratefully acknowledge several colleagues who have allowed us to
 interface, adapt or use parts of their codes:
   Stefan Grimme, W. Hujo, H. Kruse, T. Risthaus : VdW corrections, initial TS optimization,
                                                   DFT functionals, gCP
   Ed Valeev                                     : LibInt (2-el integral package), F12 methods
   Garnet Chan, S. Sharma, R. Olivares           : DMRG
   Ulf Ekstrom                                   : XCFun DFT Library
   Mihaly Kallay                                 : mrcc  (arbitrary order and MRCC methods)
   Andreas Klamt, Michael Diedenhofen            : otool_cosmo (COSMO solvation model)
   Frank Weinhold                                : gennbo (NPA and NBO analysis)
   Christopher J. Cramer and Donald G. Truhlar   : smd solvation model


 Your calculation uses the libint2 library for the computation of 2-el integrals
 For citations please refer to: http://libint.valeyev.net

 This ORCA versions uses:
   CBLAS   interface :  Fast vector & matrix operations
   LAPACKE interface :  Fast linear algebra routines
   SCALAPACK package :  Parallel linear algebra routines


Your calculation utilizes the basis: Ahlrichs-TZV
Cite in your paper:
H - Kr: A. Schaefer, H. Horn and R. Ahlrichs, J. Chem. Phys. 97, 2571 (1992).

The def2-TZV basis will be loaded
Cite in your paper:
 	F. Weigend, R. Ahlrichs, Phys. Chem. Chem. Phys. 2005, 7, 3297.

Your calculation utilizes the atom-pairwise dispersion correction
with the Becke-Johnson damping scheme (D3BJ)
Cite in your paper:
S.Grimme, S.Ehrlich, L.Goerigk, J Comput Chem, (2011), 32, 1456–1465 
S.Grimme, J.Antony, S.Ehrlich and H.Krieg, J.Chem.Phys., 132, (2010), 154104 
   

================================================================================
                                        WARNINGS
                       Please study these warnings very carefully!
================================================================================

WARNING: The RI method has been chosen with no auxiliary basis (AUX or GTOAUX in BASIS block)
        Standard TZV/J expansion basis used (GTOAUX=TZV_J)

Now building the actual basis set
cite the ECPs for Pb [SD(60,MDF)] as follows:
  B. Metz, H. Stoll, M. Dolg, J. Chem. Phys. 113, 2563 (2000).

ECP parameters for Pb [SD(60,MDF)] have been obtained from:
  pseudopotential library of the Stuttgart/Cologne group
  http://www.theochem.uni-stuttgart.de/pseudopotentials/

cite the ECP basis sets for Pb [DEF2-TZVP] as follows:
  F. Weigend, R. Ahlrichs; Phys. Chem. Chem. Phys. 7, 3297(2005).

ECP basis sets for Pb [DEF2-TZVP] have been obtained from:
  Turbomole basis set library
  ftp://ftp.chemie.uni-karlsruhe.de/pub/basen/



INFO   : the flag for use of LIBINT has been found!

================================================================================
                                       INPUT FILE
================================================================================
NAME = PbCl6NH3CH3-2_mp2_sp_5.orca
|  1> ! RIJCOSX RI-B2PLYP D3BJ def2-TZVP ECP{def2-TZVP} TIGHTSCF Grid5 FinalGrid6 MORead
|  2> %method
|  3>  RunTyp Gradient
|  4>  end
|  5> %maxcore 1000
|  6> %moinp "previous.gbw"
|  7> *xyz -2 1
|  8> C 2.821971 3.493173 2.716929 
|  9> N 2.031893 2.485380 2.005967 
| 10> H 3.493737 3.003675 3.431461 
| 11> H 2.156449 4.174155 3.259759 
| 12> H 3.419280 4.070497 2.001994 
| 13> H 1.424368 1.881241 2.639320 
| 14> H 2.617127 1.787701 1.451958 
| 15> H 1.353302 2.890520 1.291746 
| 16> Pb 0.059661 0.029237 0.153555 
| 17> Cl 3.203789 0.276995 0.315486 
| 18> Cl -0.031788 3.013782 -0.159177 
| 19> Cl 0.149262 0.507842 3.214664 
| 20> Cl -2.978749 -0.365226 0.127751 
| 21> Cl -0.003248 -0.502150 -2.809873 
| 22> Cl 0.236834 -3.065602 0.496451 
| 23> N -1.884966 -2.527607 -1.578982 
| 24> C -2.664881 -3.549172 -2.281400 
| 25> H -2.474954 -1.829497 -1.031708 
| 26> H -1.279571 -1.925402 -2.215561 
| 27> H -3.259633 -4.123288 -1.561779 
| 28> H -1.991792 -4.230944 -2.813775 
| 29> H -3.338231 -3.073756 -3.003955 
| 30> H -1.204879 -2.923566 -0.859634 
| 31> *
| 32> 
| 33>                          ****END OF INPUT****
================================================================================

                     *******************************
                     * Energy+Gradient Calculation *
                     *******************************

---------------------------------
CARTESIAN COORDINATES (ANGSTROEM)
---------------------------------
  C      2.821971    3.493173    2.716929
  N      2.031893    2.485380    2.005967
  H      3.493737    3.003675    3.431461
  H      2.156449    4.174155    3.259759
  H      3.419280    4.070497    2.001994
  H      1.424368    1.881241    2.639320
  H      2.617127    1.787701    1.451958
  H      1.353302    2.890520    1.291746
  Pb     0.059661    0.029237    0.153555
  Cl     3.203789    0.276995    0.315486
  Cl    -0.031788    3.013782   -0.159177
  Cl     0.149262    0.507842    3.214664
  Cl    -2.978749   -0.365226    0.127751
  Cl    -0.003248   -0.502150   -2.809873
  Cl     0.236834   -3.065602    0.496451
  N     -1.884966   -2.527607   -1.578982
  C     -2.664881   -3.549172   -2.281400
  H     -2.474954   -1.829497   -1.031708
  H     -1.279571   -1.925402   -2.215561
  H     -3.259633   -4.123288   -1.561779
  H     -1.991792   -4.230944   -2.813775
  H     -3.338231   -3.073756   -3.003955
  H     -1.204879   -2.923566   -0.859634

----------------------------
CARTESIAN COORDINATES (A.U.)
----------------------------
  NO LB      ZA    FRAG    MASS        X           Y           Z
   0 C     6.0000    0    12.011          5.332752347867888          6.601140308408101          5.134251735308532
   1 N     7.0000    0    14.007          3.839721303431654          4.696687538725200          3.790728263683611
   2 H     1.0000    0     1.008          6.602206113947632          5.676123145305915          6.484521529231552
   3 H     1.0000    0     1.008          4.075098031768349          7.888009790538062          6.160051772585005
   4 H     1.0000    0     1.008          6.461502775194258          7.692124558948052          3.783220381753542
   5 H     1.0000    0     1.008          2.691665433921146          3.555030281904149          4.987591979781038
   6 H     1.0000    0     1.008          4.945653287690924          3.378265299337155          2.743802977956033
   7 H     1.0000    0     1.008          2.557370156487898          5.462291184622056          2.441046174588241
   8 Pb   22.0000*   0   207.200  0.112742950875876  0.055249922977456  0.290176896494278
   9 Cl   17.0000    0    35.453          6.054283800869433          0.523444690465517          0.596182139086280
  10 Cl   17.0000    0    35.453         -0.060070614345089          5.695222607341457         -0.300800936819183
  11 Cl   17.0000    0    35.453          0.282064302201354          0.959682299302836          6.074834572575827
  12 Cl   17.0000    0    35.453         -5.629019831691795         -0.690177116987523          0.241414403334574
  13 Cl   17.0000    0    35.453         -0.006137830482976         -0.948925978148557         -5.309890441099709
  14 Cl   17.0000    0    35.453          0.447551399201106         -5.793148215601257          0.938156428911339
  15 N     7.0000    0    14.007         -3.562069511753006         -4.776485004182294         -2.983843550391246
  16 C     6.0000    0    12.011         -5.035895269490199         -6.706963082181557         -4.311221201927943
  17 H     1.0000    0     1.008         -4.676985254052937         -3.457248292830528         -1.949645570175627
  18 H     1.0000    0     1.008         -2.418038758907750         -3.638482477704246         -4.186803522996702
  19 H     1.0000    0     1.008         -6.159813667092132         -7.791885091283890         -2.951334591709398
  20 H     1.0000    0     1.008         -3.763941395735278         -7.995325447957316         -5.317264152474270
  21 H     1.0000    0     1.008         -6.308342361766074         -5.808557042497251         -5.676652268623413
  22 H     1.0000    0     1.008         -2.276891334512904         -5.524739074443619         -1.624472835407261
* core charge reduced due to ECP

--------------------------------
INTERNAL COORDINATES (ANGSTROEM)
--------------------------------
 C      0   0   0   0.000000     0.000     0.000
 N      1   0   0   1.464697     0.000     0.000
 H      1   2   0   1.096099   109.861     0.000
 H      1   2   3   1.096048   109.899   239.985
 H      1   2   3   1.095999   109.864   119.972
 H      2   1   3   1.065461   114.153    59.908
 H      2   1   3   1.065918   113.984   299.878
 H      2   1   3   1.065240   114.041   179.989
 Pb     8   2   1   3.340049    98.592   179.110
 Cl     7   2   1   1.979387   163.883   177.833
 Cl     8   2   1   2.009688   161.162   176.859
 Cl     6   2   1   1.960393   160.489   179.786
 Cl     9   8   2   3.064017   119.817   126.818
 Cl     9   8   2   3.011351   119.644   231.743
 Cl     9   8   2   3.118813   142.242   359.425
 N     13   9   8   2.963982    74.504   165.964
 C     16  13   9   1.464668   126.050   180.405
 H     16  13   9   1.065341    11.974   185.113
 H     16  13   9   1.065076    98.130   308.483
 H     17  16  13   1.095990   109.842   301.373
 H     17  16  13   1.096031   109.864   181.423
 H     17  16  13   1.096132   109.921    61.384
 H     16  13   9   1.066191    96.767    54.262

---------------------------
INTERNAL COORDINATES (A.U.)
---------------------------
 C      0   0   0   0.000000     0.000     0.000
 N      1   0   0   2.767876     0.000     0.000
 H      1   2   0   2.071328   109.861     0.000
 H      1   2   3   2.071230   109.899   239.985
 H      1   2   3   2.071137   109.864   119.972
 H      2   1   3   2.013429   114.153    59.908
 H      2   1   3   2.014293   113.984   299.878
 H      2   1   3   2.013011   114.041   179.989
 Pb     8   2   1   6.311778    98.592   179.110
 Cl     7   2   1   3.740500   163.883   177.833
 Cl     8   2   1   3.797760   161.162   176.859
 Cl     6   2   1   3.704606   160.489   179.786
 Cl     9   8   2   5.790154   119.817   126.818
 Cl     9   8   2   5.690629   119.644   231.743
 Cl     9   8   2   5.893703   142.242   359.425
 N     13   9   8   5.601115    74.504   165.964
 C     16  13   9   2.767822   126.050   180.405
 H     16  13   9   2.013203    11.974   185.113
 H     16  13   9   2.012702    98.130   308.483
 H     17  16  13   2.071120   109.842   301.373
 H     17  16  13   2.071199   109.864   181.423
 H     17  16  13   2.071390   109.921    61.384
 H     16  13   9   2.014809    96.767    54.262

---------------------
BASIS SET INFORMATION
---------------------
There are 5 groups of distinct atoms

 Group   1 Type C   : 11s6p2d1f contracted to 5s3p2d1f pattern {62111/411/11/1}
 Group   2 Type N   : 11s6p2d1f contracted to 5s3p2d1f pattern {62111/411/11/1}
 Group   3 Type H   : 5s1p contracted to 3s1p pattern {311/1}
 Group   4 Type Pb  : 10s9p8d2f contracted to 6s5p3d2f pattern {421111/33111/611/11}
 Group   5 Type Cl  : 14s9p3d1f contracted to 5s5p2d1f pattern {73211/51111/21/1}

Atom   0C    basis set group =>   1
Atom   1N    basis set group =>   2
Atom   2H    basis set group =>   3
Atom   3H    basis set group =>   3
Atom   4H    basis set group =>   3
Atom   5H    basis set group =>   3
Atom   6H    basis set group =>   3
Atom   7H    basis set group =>   3
Atom   8Pb   basis set group =>   4
Atom   9Cl   basis set group =>   5
Atom  10Cl   basis set group =>   5
Atom  11Cl   basis set group =>   5
Atom  12Cl   basis set group =>   5
Atom  13Cl   basis set group =>   5
Atom  14Cl   basis set group =>   5
Atom  15N    basis set group =>   2
Atom  16C    basis set group =>   1
Atom  17H    basis set group =>   3
Atom  18H    basis set group =>   3
Atom  19H    basis set group =>   3
Atom  20H    basis set group =>   3
Atom  21H    basis set group =>   3
Atom  22H    basis set group =>   3
-------------------------------
AUXILIARY BASIS SET INFORMATION
-------------------------------
There are 5 groups of distinct atoms

 Group   1 Type C   : 12s5p4d2f1g contracted to 6s4p3d1f1g pattern {711111/2111/211/2/1}
 Group   2 Type N   : 12s5p4d2f1g contracted to 6s4p3d1f1g pattern {711111/2111/211/2/1}
 Group   3 Type H   : 5s2p1d contracted to 3s1p1d pattern {311/2/1}
 Group   4 Type Pb  : 31s12p8d6f3g contracted to 31s12p8d6f3g pattern {1111111111111111111111111111111/111111111111/11111111/111111/111}
 Group   5 Type Cl  : 14s5p5d2f1g contracted to 8s4p3d1f1g pattern {71111111/2111/311/2/1}

Atom   0C    basis set group =>   1
Atom   1N    basis set group =>   2
Atom   2H    basis set group =>   3
Atom   3H    basis set group =>   3
Atom   4H    basis set group =>   3
Atom   5H    basis set group =>   3
Atom   6H    basis set group =>   3
Atom   7H    basis set group =>   3
Atom   8Pb   basis set group =>   4
Atom   9Cl   basis set group =>   5
Atom  10Cl   basis set group =>   5
Atom  11Cl   basis set group =>   5
Atom  12Cl   basis set group =>   5
Atom  13Cl   basis set group =>   5
Atom  14Cl   basis set group =>   5
Atom  15N    basis set group =>   2
Atom  16C    basis set group =>   1
Atom  17H    basis set group =>   3
Atom  18H    basis set group =>   3
Atom  19H    basis set group =>   3
Atom  20H    basis set group =>   3
Atom  21H    basis set group =>   3
Atom  22H    basis set group =>   3

-------------------------
ECP PARAMETER INFORMATION
-------------------------

 Group 1, Type Pb ECP SD(60,MDF) (replacing 60 core electrons, lmax=5)

Atom   8Pb   ECP group =>   1


------------------------------------------------------------------------------
                           ORCA GTO INTEGRAL CALCULATION
                           -- RI-GTO INTEGRALS CHOSEN --
------------------------------------------------------------------------------

                         BASIS SET STATISTICS AND STARTUP INFO

Gaussian basis set:
 # of primitive gaussian shells          ...  343
 # of primitive gaussian functions       ...  749
 # of contracted shells                  ...  186
 # of contracted basis functions         ...  468
 Highest angular momentum                ...    3
 Maximum contraction depth               ...    7
Auxiliary gaussian basis set:
 # of primitive gaussian shells          ...  414
 # of primitive gaussian functions       ... 1110
 # of contracted shells                  ...  282
 # of contracted aux-basis functions     ...  810
 Highest angular momentum                ...    4
 Maximum contraction depth               ...    7
Ratio of auxiliary to basis functions    ...  1.73
Integral package used                  ... LIBINT
 One Electron integrals                  
   ECP integrals                         ... done
 Ordering auxiliary basis shells         ... done
 Integral threshhold             Thresh  ...  2.500e-11
 Primitive cut-off               TCut    ...  2.500e-12
 Pre-screening matrix                    ... done
 Shell pair data                         ... 
 Ordering of the shell pairs             ... done (   0.002 sec) 11371 of 17391 pairs
 Determination of significant pairs      ... done (   0.000 sec)
 Creation of shell pair data             ... done (   0.004 sec)
 Storage of shell pair data              ... done (   0.002 sec)
 Shell pair data done in (   0.008 sec)
 Computing two index integrals           ... done
 Cholesky decomposition of the V-matrix  ... done


Timings:
 Total evaluation time                   ...   1.343 sec (  0.022 min)
 One electron matrix time                ...   0.785 sec (  0.013 min) = 58.5%
 Schwartz matrix evaluation time         ...   0.469 sec (  0.008 min) = 35.0%
 Two index repulsion integral time       ...   0.027 sec (  0.000 min) =  2.0%
 Cholesky decomposition of V             ...   0.025 sec (  0.000 min) =  1.9%
 Three index repulsion integral time     ...   0.000 sec (  0.000 min) =  0.0%

-------------------------------------------------------------------------------
                                 ORCA SCF
-------------------------------------------------------------------------------

------------
SCF SETTINGS
------------
Hamiltonian:
 Density Functional     Method          .... DFT(GTOs)
 Exchange Functional    Exchange        .... B88
   X-Alpha parameter    XAlpha          ....  0.666667
   Becke's b parameter  XBeta           ....  0.004200
 Correlation Functional Correlation     .... LYP
 LDA part of GGA corr.  LDAOpt          .... VWN-3
 Gradients option       PostSCFGGA      .... off
 Hybrid DFT is turned on
   Fraction HF Exchange ScalHFX         ....  0.530000
   Scaling of DF-GGA-X  ScalDFX         ....  0.470000
   Scaling of DF-GGA-C  ScalDFC         ....  0.730000
   Scaling of DF-LDA-C  ScalLDAC        ....  0.730000
   Perturbative correction              ....  0.270000
 RI-approximation to the Coulomb term is turned on
   Number of auxiliary basis functions  .... 810
   RIJ-COSX (HFX calculated with COS-X)).... on


General Settings:
 Integral files         IntName         .... PbCl6NH3CH3-2_mp2_sp_5.orca
 Hartree-Fock type      HFTyp           .... RHF
 Total Charge           Charge          ....   -2
 Multiplicity           Mult            ....    1
 Number of Electrons    NEL             ....  164
 Basis Dimension        Dim             ....  468
 Nuclear Repulsion      ENuc            ....   1563.7627735459 Eh

Convergence Acceleration:
 DIIS                   CNVDIIS         .... on
   Start iteration      DIISMaxIt       ....    12
   Startup error        DIISStart       ....  0.200000
   # of expansion vecs  DIISMaxEq       ....     5
   Bias factor          DIISBfac        ....   1.050
   Max. coefficient     DIISMaxC        ....  10.000
 Newton-Raphson         CNVNR           .... off
 SOSCF                  CNVSOSCF        .... on
   Start iteration      SOSCFMaxIt      ....   150
   Startup grad/error   SOSCFStart      ....  0.003300
 Level Shifting         CNVShift        .... on
   Level shift para.    LevelShift      ....    0.2500
   Turn off err/grad.   ShiftErr        ....    0.0010
 Zerner damping         CNVZerner       .... off
 Static damping         CNVDamp         .... on
   Fraction old density DampFac         ....    0.7000
   Max. Damping (<1)    DampMax         ....    0.9800
   Min. Damping (>=0)   DampMin         ....    0.0000
   Turn off err/grad.   DampErr         ....    0.1000
 Fernandez-Rico         CNVRico         .... off

SCF Procedure:
 Maximum # iterations   MaxIter         ....   125
 SCF integral mode      SCFMode         .... Direct
   Integral package                     .... LIBINT
 Reset frequeny         DirectResetFreq ....    20
 Integral Threshold     Thresh          ....  2.500e-11 Eh
 Primitive CutOff       TCut            ....  2.500e-12 Eh

Convergence Tolerance:
 Convergence Check Mode ConvCheckMode   .... Total+1el-Energy
 Energy Change          TolE            ....  1.000e-08 Eh
 1-El. energy change                    ....  1.000e-05 Eh
 Orbital Gradient       TolG            ....  1.000e-05
 Orbital Rotation angle TolX            ....  1.000e-05
 DIIS Error             TolErr          ....  5.000e-07


Diagonalization of the overlap matrix:
Smallest eigenvalue                        ... 1.083e-03
Time for diagonalization                   ...    0.076 sec
Threshold for overlap eigenvalues          ... 1.000e-08
Number of eigenvalues below threshold      ... 0
Time for construction of square roots      ...    0.031 sec
Total time needed                          ...    0.109 sec

---------------------
INITIAL GUESS: MOREAD
---------------------
Guess MOs are being read from file: previous.gbw
Input geometry compatible with but different from current geometry
Input basis set matches current basis set (good)
MOs were renormalized
MOs were reorthogonalized (Schmidt)
                      ------------------
                      INITIAL GUESS DONE (   0.8 sec)
                      ------------------
-------------------
DFT GRID GENERATION
-------------------

General Integration Accuracy     IntAcc      ...  5.010
Radial Grid Type                 RadialGrid  ... Gauss-Chebyshev
Angular Grid (max. acc.)         AngularGrid ... Lebedev-434
Angular grid pruning method      GridPruning ... 3 (G Style)
Weight generation scheme         WeightScheme... Becke
Basis function cutoff            BFCut       ...    1.0000e-11
Integration weight cutoff        WCut        ...    1.0000e-14
Grids for H and He will be reduced by one unit

# of grid points (after initial pruning)     ... 212974 (   0.2 sec)
# of grid points (after weights+screening)   ... 195966 (   1.1 sec)
nearest neighbour list constructed           ...    0.0 sec
Grid point re-assignment to atoms done       ...    0.1 sec
Grid point division into batches done        ...    1.6 sec
Reduced shell lists constructed in    9.7 sec

Total number of grid points                  ...   195966
Total number of batches                      ...     3074
Average number of points per batch           ...       63
Average number of grid points per atom       ...     8520
Average number of shells per batch           ...    68.37 (36.76%)
Average number of basis functions per batch  ...   173.25 (37.02%)
Average number of large shells per batch     ...    46.30 (67.72%)
Average number of large basis fcns per batch ...   116.06 (66.99%)
Maximum spatial batch extension              ...  29.10, 29.29, 30.33 au
Average spatial batch extension              ...   2.10,  2.08,  2.10 au

Time for grid setup =   10.976 sec

--------------------
COSX GRID GENERATION
--------------------

General Integration Accuracy     IntAcc      ...  3.340
Radial Grid Type                 RadialGrid  ... Gauss-Chebyshev
Angular Grid (max. acc.)         AngularGrid ... Lebedev-50
Angular grid pruning method      GridPruning ... 3 (G Style)
Weight generation scheme         WeightScheme... Becke
Basis function cutoff            BFCut       ...    1.0000e-11
Integration weight cutoff        WCut        ...    1.0000e-14
Grids for H and He will be reduced by one unit

# of grid points (after initial pruning)     ...  11762 (   0.0 sec)
# of grid points (after weights+screening)   ...  10917 (   0.1 sec)
nearest neighbour list constructed           ...    0.0 sec
Grid point re-assignment to atoms done       ...    0.0 sec
Grid point division into batches done        ...    0.0 sec
Reduced shell lists constructed in    0.4 sec

Total number of grid points                  ...    10917
Total number of batches                      ...      183
Average number of points per batch           ...       59
Average number of grid points per atom       ...      475
Average number of shells per batch           ...    86.84 (46.69%)
Average number of basis functions per batch  ...   224.88 (48.05%)
Average number of large shells per batch     ...    59.30 (68.29%)
Average number of large basis fcns per batch ...   151.08 (67.18%)
Maximum spatial batch extension              ...  24.54, 19.54, 22.96 au
Average spatial batch extension              ...   5.47,  5.08,  5.33 au

Overlap Fitting                  UseSFitting ... on
Constructing numerical overlap ... done (      0.3 sec)
Inverting numerical overlap    ... done (      0.0 sec)
Obtaining analytic overlap     ... done (      0.0 sec)
Final contraction and storage  ... done (      0.0 sec)


General Integration Accuracy     IntAcc      ...  3.670
Radial Grid Type                 RadialGrid  ... Gauss-Chebyshev
Angular Grid (max. acc.)         AngularGrid ... Lebedev-50
Angular grid pruning method      GridPruning ... 3 (G Style)
Weight generation scheme         WeightScheme... Becke
Basis function cutoff            BFCut       ...    1.0000e-11
Integration weight cutoff        WCut        ...    1.0000e-14
Grids for H and He will be reduced by one unit

# of grid points (after initial pruning)     ...  14690 (   0.0 sec)
# of grid points (after weights+screening)   ...  13601 (   0.1 sec)
nearest neighbour list constructed           ...    0.0 sec
Grid point re-assignment to atoms done       ...    0.0 sec
Grid point division into batches done        ...    0.0 sec
Reduced shell lists constructed in    0.6 sec

Total number of grid points                  ...    13601
Total number of batches                      ...      222
Average number of points per batch           ...       61
Average number of grid points per atom       ...      591
Average number of shells per batch           ...    84.54 (45.45%)
Average number of basis functions per batch  ...   218.48 (46.68%)
Average number of large shells per batch     ...    57.69 (68.24%)
Average number of large basis fcns per batch ...   146.12 (66.88%)
Maximum spatial batch extension              ...  25.26, 19.96, 23.84 au
Average spatial batch extension              ...   5.15,  4.86,  5.07 au

Overlap Fitting                  UseSFitting ... on
Constructing numerical overlap ... done (      0.4 sec)
Inverting numerical overlap    ... done (      0.0 sec)
Obtaining analytic overlap     ... done (      0.0 sec)
Final contraction and storage  ... done (      0.0 sec)


General Integration Accuracy     IntAcc      ...  4.010
Radial Grid Type                 RadialGrid  ... Gauss-Chebyshev
Angular Grid (max. acc.)         AngularGrid ... Lebedev-110
Angular grid pruning method      GridPruning ... 3 (G Style)
Weight generation scheme         WeightScheme... Becke
Basis function cutoff            BFCut       ...    1.0000e-11
Integration weight cutoff        WCut        ...    1.0000e-14
Grids for H and He will be reduced by one unit

# of grid points (after initial pruning)     ...  27082 (   0.0 sec)
# of grid points (after weights+screening)   ...  25300 (   0.1 sec)
nearest neighbour list constructed           ...    0.0 sec
Grid point re-assignment to atoms done       ...    0.0 sec
Grid point division into batches done        ...    0.0 sec
Reduced shell lists constructed in    1.3 sec

Total number of grid points                  ...    25300
Total number of batches                      ...      406
Average number of points per batch           ...       62
Average number of grid points per atom       ...     1100
Average number of shells per batch           ...    80.60 (43.33%)
Average number of basis functions per batch  ...   207.36 (44.31%)
Average number of large shells per batch     ...    54.94 (68.17%)
Average number of large basis fcns per batch ...   139.73 (67.39%)
Maximum spatial batch extension              ...  28.48, 26.51, 26.43 au
Average spatial batch extension              ...   4.31,  4.09,  4.12 au

Overlap Fitting                  UseSFitting ... on
Constructing numerical overlap ... done (      0.7 sec)
Inverting numerical overlap    ... done (      0.0 sec)
Obtaining analytic overlap     ... done (      0.0 sec)
Final contraction and storage  ... done (      0.0 sec)

Time for X-Grid setup             =    4.168 sec
--------------
SCF ITERATIONS
--------------
ITER       Energy         Delta-E        Max-DP      RMS-DP      [F,P]     Damp
               ***  Starting incremental Fock matrix formation  ***
  0  -3145.5410878429   0.000000000000 0.00192755  0.00003374  0.0493219 0.7000
                      *** Initiating the SOSCF procedure ***
                      *** Re-Reading the Fockian *** 
                      *** Removing any level shift *** 
ITER      Energy       Delta-E        Grad      Rot      Max-DP    RMS-DP
  1  -3145.54130772  -0.0002198745  0.000801  0.000801  0.006382  0.000111
               *** Restarting incremental Fock matrix formation ***
  2  -3145.54191219  -0.0006044691  0.000871  0.002391  0.002243  0.000045
  3  -3145.54196480  -0.0000526177  0.000454  0.000871  0.001431  0.000025
  4  -3145.54197869  -0.0000138903  0.000161  0.000215  0.000511  0.000007
  5  -3145.54198016  -0.0000014607  0.000039  0.000032  0.000105  0.000002
  6  -3145.54198021  -0.0000000538  0.000007  0.000029  0.000044  0.000001
  7  -3145.54198025  -0.0000000422  0.000004  0.000014  0.000013  0.000000
                 **** Energy Check signals convergence ****
              ***Rediagonalizing the Fockian in SOSCF/NRSCF***

               *****************************************************
               *                     SUCCESS                       *
               *           SCF CONVERGED AFTER   8 CYCLES          *
               *****************************************************

Old exchange energy                            =   -110.593357915 Eh
New exchange energy                            =   -110.601365085 Eh
Exchange energy change after final integration =     -0.008007169 Eh
Total energy after final integration           =  -3145.549987429 Eh
Final COS-X integration done in                =    67.368 sec

----------------
TOTAL SCF ENERGY
----------------

Total Energy       :        -3145.54998743 Eh          -85594.76671 eV

Components:
Nuclear Repulsion  :         1563.76277355 Eh           42552.14838 eV
Electronic Energy  :        -4709.31276098 Eh         -128146.91509 eV

One Electron Energy:        -7576.38782814 Eh         -206163.99398 eV
Two Electron Energy:         2867.07506717 Eh           78017.07889 eV

Virial components:
Potential Energy   :        -6157.98096132 Eh         -167567.18091 eV
Kinetic Energy     :         3012.43097390 Eh           81972.41420 eV
Virial Ratio       :            2.04418990


DFT components:
N(Alpha)           :       82.000005840507 electrons
N(Beta)            :       82.000005840507 electrons
N(Total)           :      164.000011681014 electrons
E(X)               :      -98.144907653498 Eh       
E(C)               :       -4.636630809512 Eh       
E(XC)              :     -102.781538463009 Eh       

---------------
SCF CONVERGENCE
---------------

  Last Energy change         ...   -9.1122e-09  Tolerance :   1.0000e-08
  Last MAX-Density change    ...    6.3283e-14  Tolerance :   1.0000e-07
  Last RMS-Density change    ...    3.4862e-16  Tolerance :   5.0000e-09
  Last Orbital Gradient      ...    1.3663e-06  Tolerance :   1.0000e-05
  Last Orbital Rotation      ...    1.7329e-06  Tolerance :   1.0000e-05

             **** THE GBW FILE WAS UPDATED (PbCl6NH3CH3-2_mp2_sp_5.orca.gbw) ****
             **** DENSITY FILE WAS UPDATED (PbCl6NH3CH3-2_mp2_sp_5.orca.scfp.tmp) ****
             **** ENERGY FILE WAS UPDATED (PbCl6NH3CH3-2_mp2_sp_5.orca.en.tmp) ****
----------------
ORBITAL ENERGIES
----------------

  NO   OCC          E(Eh)            E(eV) 
   0   2.0000    -102.586018     -2791.5075 
   1   2.0000    -102.584788     -2791.4740 
   2   2.0000    -102.584540     -2791.4672 
   3   2.0000    -102.578402     -2791.3002 
   4   2.0000    -102.575877     -2791.2315 
   5   2.0000    -102.575864     -2791.2312 
   6   2.0000     -14.688352      -399.6904 
   7   2.0000     -14.687752      -399.6740 
   8   2.0000     -10.489355      -285.4299 
   9   2.0000     -10.489065      -285.4220 
  10   2.0000      -9.592731      -261.0315 
  11   2.0000      -9.591681      -261.0029 
  12   2.0000      -9.591269      -260.9917 
  13   2.0000      -9.585163      -260.8255 
  14   2.0000      -9.582481      -260.7526 
  15   2.0000      -9.582418      -260.7509 
  16   2.0000      -7.229181      -196.7160 
  17   2.0000      -7.228856      -196.7072 
  18   2.0000      -7.228199      -196.6893 
  19   2.0000      -7.228070      -196.6858 
  20   2.0000      -7.227852      -196.6799 
  21   2.0000      -7.227714      -196.6761 
  22   2.0000      -7.227402      -196.6676 
  23   2.0000      -7.227131      -196.6602 
  24   2.0000      -7.226734      -196.6494 
  25   2.0000      -7.221527      -196.5077 
  26   2.0000      -7.221365      -196.5033 
  27   2.0000      -7.220652      -196.4839 
  28   2.0000      -7.218852      -196.4350 
  29   2.0000      -7.218776      -196.4329 
  30   2.0000      -7.218702      -196.4309 
  31   2.0000      -7.218665      -196.4299 
  32   2.0000      -7.217985      -196.4113 
  33   2.0000      -7.217926      -196.4098 
  34   2.0000      -5.560689      -151.3140 
  35   2.0000      -3.331244       -90.6478 
  36   2.0000      -3.330699       -90.6329 
  37   2.0000      -3.330503       -90.6276 
  38   2.0000      -0.877460       -23.8769 
  39   2.0000      -0.877362       -23.8742 
  40   2.0000      -0.719771       -19.5860 
  41   2.0000      -0.719684       -19.5836 
  42   2.0000      -0.718450       -19.5500 
  43   2.0000      -0.717277       -19.5181 
  44   2.0000      -0.717020       -19.5111 
  45   2.0000      -0.633169       -17.2294 
  46   2.0000      -0.632078       -17.1997 
  47   2.0000      -0.603900       -16.4330 
  48   2.0000      -0.603639       -16.4258 
  49   2.0000      -0.599608       -16.3162 
  50   2.0000      -0.596199       -16.2234 
  51   2.0000      -0.592932       -16.1345 
  52   2.0000      -0.590527       -16.0691 
  53   2.0000      -0.408922       -11.1273 
  54   2.0000      -0.408637       -11.1196 
  55   2.0000      -0.408222       -11.1083 
  56   2.0000      -0.407989       -11.1019 
  57   2.0000      -0.360827        -9.8186 
  58   2.0000      -0.360565        -9.8115 
  59   2.0000      -0.290538        -7.9059 
  60   2.0000      -0.289357        -7.8738 
  61   2.0000      -0.288722        -7.8565 
  62   2.0000      -0.288647        -7.8545 
  63   2.0000      -0.288416        -7.8482 
  64   2.0000      -0.115880        -3.1533 
  65   2.0000      -0.110600        -3.0096 
  66   2.0000      -0.109038        -2.9671 
  67   2.0000      -0.098225        -2.6728 
  68   2.0000      -0.091082        -2.4785 
  69   2.0000      -0.087828        -2.3899 
  70   2.0000      -0.087159        -2.3717 
  71   2.0000      -0.082946        -2.2571 
  72   2.0000      -0.082021        -2.2319 
  73   2.0000      -0.081508        -2.2179 
  74   2.0000      -0.079980        -2.1764 
  75   2.0000      -0.078843        -2.1454 
  76   2.0000      -0.078475        -2.1354 
  77   2.0000      -0.076996        -2.0952 
  78   2.0000      -0.075366        -2.0508 
  79   2.0000      -0.072741        -1.9794 
  80   2.0000      -0.069266        -1.8848 
  81   2.0000      -0.043470        -1.1829 
  82   0.0000       0.241816         6.5802 
  83   0.0000       0.242471         6.5980 
  84   0.0000       0.257824         7.0157 
  85   0.0000       0.263429         7.1683 
  86   0.0000       0.264246         7.1905 
  87   0.0000       0.307873         8.3776 
  88   0.0000       0.308147         8.3851 
  89   0.0000       0.308531         8.3956 
  90   0.0000       0.309005         8.4085 
  91   0.0000       0.309610         8.4249 
  92   0.0000       0.311111         8.4658 
  93   0.0000       0.377409        10.2698 
  94   0.0000       0.378341        10.2952 
  95   0.0000       0.380453        10.3527 
  96   0.0000       0.382536        10.4093 
  97   0.0000       0.412938        11.2366 
  98   0.0000       0.413852        11.2615 
  99   0.0000       0.414110        11.2685 
 100   0.0000       0.415435        11.3046 
 101   0.0000       0.445177        12.1139 
 102   0.0000       0.461336        12.5536 
 103   0.0000       0.492809        13.4100 
 104   0.0000       0.494670        13.4606 
 105   0.0000       0.496518        13.5109 
 106   0.0000       0.497641        13.5415 
 107   0.0000       0.508536        13.8380 
 108   0.0000       0.509609        13.8672 
 109   0.0000       0.520255        14.1569 
 110   0.0000       0.525664        14.3041 
 111   0.0000       0.526472        14.3260 
 112   0.0000       0.543290        14.7837 
 113   0.0000       0.551677        15.0119 
 114   0.0000       0.552285        15.0284 
 115   0.0000       0.589977        16.0541 
 116   0.0000       0.590800        16.0765 
 117   0.0000       0.592833        16.1318 
 118   0.0000       0.604262        16.4428 
 119   0.0000       0.616706        16.7814 
 120   0.0000       0.635868        17.3029 
 121   0.0000       0.637044        17.3348 
 122   0.0000       0.639641        17.4055 
 123   0.0000       0.660900        17.9840 
 124   0.0000       0.667580        18.1658 
 125   0.0000       0.669709        18.2237 
 126   0.0000       0.679191        18.4817 
 127   0.0000       0.683242        18.5920 
 128   0.0000       0.684082        18.6148 
 129   0.0000       0.684660        18.6305 
 130   0.0000       0.694418        18.8961 
 131   0.0000       0.695425        18.9235 
 132   0.0000       0.702947        19.1282 
 133   0.0000       0.711909        19.3720 
 134   0.0000       0.714836        19.4517 
 135   0.0000       0.724301        19.7092 
 136   0.0000       0.726453        19.7678 
 137   0.0000       0.735234        20.0067 
 138   0.0000       0.737240        20.0613 
 139   0.0000       0.741865        20.1872 
 140   0.0000       0.742453        20.2032 
 141   0.0000       0.744694        20.2641 
 142   0.0000       0.746513        20.3137 
 143   0.0000       0.749511        20.3952 
 144   0.0000       0.760353        20.6903 
 145   0.0000       0.762289        20.7429 
 146   0.0000       0.772237        21.0136 
 147   0.0000       0.775714        21.1083 
 148   0.0000       0.779462        21.2102 
 149   0.0000       0.781778        21.2733 
 150   0.0000       0.786007        21.3883 
 151   0.0000       0.805280        21.9128 
 152   0.0000       0.809408        22.0251 
 153   0.0000       0.810718        22.0608 
 154   0.0000       0.812686        22.1143 
 155   0.0000       0.813146        22.1268 
 156   0.0000       0.814712        22.1694 
 157   0.0000       0.816899        22.2290 
 158   0.0000       0.824107        22.4251 
 159   0.0000       0.825413        22.4606 
 160   0.0000       0.833246        22.6738 
 161   0.0000       0.841824        22.9072 
 162   0.0000       0.843844        22.9622 
 163   0.0000       0.845035        22.9946 
 164   0.0000       0.863453        23.4957 
 165   0.0000       0.865778        23.5590 
 166   0.0000       0.868887        23.6436 
 167   0.0000       0.899596        24.4792 
 168   0.0000       0.914602        24.8876 
 169   0.0000       0.926966        25.2240 
 170   0.0000       0.931676        25.3522 
 171   0.0000       0.934023        25.4160 
 172   0.0000       0.935142        25.4465 
 173   0.0000       0.960917        26.1479 
 174   0.0000       0.972594        26.4656 
 175   0.0000       0.973603        26.4931 
 176   0.0000       0.977592        26.6016 
 177   0.0000       0.977833        26.6082 
 178   0.0000       0.979275        26.6474 
 179   0.0000       0.987635        26.8749 
 180   0.0000       0.988710        26.9042 
 181   0.0000       1.006848        27.3977 
 182   0.0000       1.008410        27.4402 
 183   0.0000       1.026104        27.9217 
 184   0.0000       1.055315        28.7166 
 185   0.0000       1.057350        28.7720 
 186   0.0000       1.070888        29.1404 
 187   0.0000       1.074128        29.2285 
 188   0.0000       1.074714        29.2444 
 189   0.0000       1.077770        29.3276 
 190   0.0000       1.081431        29.4272 
 191   0.0000       1.083305        29.4782 
 192   0.0000       1.084148        29.5012 
 193   0.0000       1.125393        30.6235 
 194   0.0000       1.127239        30.6737 
 195   0.0000       1.150794        31.3147 
 196   0.0000       1.151814        31.3425 
 197   0.0000       1.153210        31.3804 
 198   0.0000       1.194001        32.4904 
 199   0.0000       1.199836        32.6492 
 200   0.0000       1.224463        33.3193 
 201   0.0000       1.231385        33.5077 
 202   0.0000       1.269294        34.5392 
 203   0.0000       1.318651        35.8823 
 204   0.0000       1.338753        36.4293 
 205   0.0000       1.344885        36.5962 
 206   0.0000       1.414080        38.4791 
 207   0.0000       1.421368        38.6774 
 208   0.0000       1.423795        38.7434 
 209   0.0000       1.425005        38.7763 
 210   0.0000       1.440246        39.1911 
 211   0.0000       1.442906        39.2635 
 212   0.0000       1.448609        39.4186 
 213   0.0000       1.465466        39.8774 
 214   0.0000       1.467391        39.9297 
 215   0.0000       1.533444        41.7271 
 216   0.0000       1.554840        42.3094 
 217   0.0000       1.562591        42.5203 
 218   0.0000       1.587504        43.1982 
 219   0.0000       1.679432        45.6997 
 220   0.0000       1.685162        45.8556 
 221   0.0000       1.692987        46.0685 
 222   0.0000       1.697369        46.1878 
 223   0.0000       1.707670        46.4681 
 224   0.0000       1.713233        46.6194 
 225   0.0000       1.777692        48.3735 
 226   0.0000       1.778106        48.3847 
 227   0.0000       1.822035        49.5801 
 228   0.0000       1.823050        49.6077 
 229   0.0000       1.830612        49.8135 
 230   0.0000       1.832022        49.8519 
 231   0.0000       1.850161        50.3454 
 232   0.0000       1.850740        50.3612 
 233   0.0000       1.851009        50.3685 
 234   0.0000       1.852489        50.4088 
 235   0.0000       1.978651        53.8418 
 236   0.0000       1.992918        54.2300 
 237   0.0000       2.026215        55.1361 
 238   0.0000       2.027846        55.1805 
 239   0.0000       2.028396        55.1954 
 240   0.0000       2.029594        55.2281 
 241   0.0000       2.120375        57.6983 
 242   0.0000       2.120531        57.7026 
 243   0.0000       2.125518        57.8383 
 244   0.0000       2.125676        57.8426 
 245   0.0000       2.161386        58.8143 
 246   0.0000       2.170797        59.0704 
 247   0.0000       2.172108        59.1061 
 248   0.0000       2.175649        59.2024 
 249   0.0000       2.177824        59.2616 
 250   0.0000       2.181403        59.3590 
 251   0.0000       2.182360        59.3850 
 252   0.0000       2.184649        59.4473 
 253   0.0000       2.188039        59.5396 
 254   0.0000       2.193433        59.6864 
 255   0.0000       2.214972        60.2725 
 256   0.0000       2.218387        60.3654 
 257   0.0000       2.228389        60.6375 
 258   0.0000       2.228936        60.6524 
 259   0.0000       2.230462        60.6939 
 260   0.0000       2.230913        60.7062 
 261   0.0000       2.240671        60.9717 
 262   0.0000       2.247595        61.1602 
 263   0.0000       2.252038        61.2811 
 264   0.0000       2.252953        61.3060 
 265   0.0000       2.258209        61.4490 
 266   0.0000       2.258648        61.4609 
 267   0.0000       2.275276        61.9134 
 268   0.0000       2.278420        61.9990 
 269   0.0000       2.292297        62.3766 
 270   0.0000       2.293786        62.4171 
 271   0.0000       2.300712        62.6056 
 272   0.0000       2.302625        62.6576 
 273   0.0000       2.303514        62.6818 
 274   0.0000       2.309440        62.8431 
 275   0.0000       2.354861        64.0790 
 276   0.0000       2.357300        64.1454 
 277   0.0000       2.368979        64.4632 
 278   0.0000       2.371974        64.5447 
 279   0.0000       2.374848        64.6229 
 280   0.0000       2.411098        65.6093 
 281   0.0000       2.413406        65.6721 
 282   0.0000       2.415804        65.7374 
 283   0.0000       2.422678        65.9244 
 284   0.0000       2.424681        65.9789 
 285   0.0000       2.428211        66.0750 
 286   0.0000       2.430194        66.1289 
 287   0.0000       2.449756        66.6613 
 288   0.0000       2.451894        66.7194 
 289   0.0000       2.452293        66.7303 
 290   0.0000       2.454184        66.7817 
 291   0.0000       2.455517        66.8180 
 292   0.0000       2.456405        66.8422 
 293   0.0000       2.468058        67.1593 
 294   0.0000       2.471021        67.2399 
 295   0.0000       2.492238        67.8172 
 296   0.0000       2.504554        68.1524 
 297   0.0000       2.506341        68.2010 
 298   0.0000       2.506849        68.2148 
 299   0.0000       2.509693        68.2922 
 300   0.0000       2.510191        68.3058 
 301   0.0000       2.513639        68.3996 
 302   0.0000       2.514929        68.4347 
 303   0.0000       2.516082        68.4661 
 304   0.0000       2.516872        68.4876 
 305   0.0000       2.518661        68.5363 
 306   0.0000       2.518953        68.5442 
 307   0.0000       2.522639        68.6445 
 308   0.0000       2.523322        68.6631 
 309   0.0000       2.533515        68.9405 
 310   0.0000       2.534035        68.9546 
 311   0.0000       2.535784        69.0022 
 312   0.0000       2.538852        69.0857 
 313   0.0000       2.539393        69.1004 
 314   0.0000       2.545506        69.2667 
 315   0.0000       2.547821        69.3297 
 316   0.0000       2.549795        69.3835 
 317   0.0000       2.557209        69.5852 
 318   0.0000       2.560193        69.6664 
 319   0.0000       2.562489        69.7289 
 320   0.0000       2.572452        70.0000 
 321   0.0000       2.574704        70.0613 
 322   0.0000       2.578595        70.1671 
 323   0.0000       2.580434        70.2172 
 324   0.0000       2.593952        70.5850 
 325   0.0000       2.595072        70.6155 
 326   0.0000       2.614340        71.1398 
 327   0.0000       2.620402        71.3048 
 328   0.0000       2.624997        71.4298 
 329   0.0000       2.627100        71.4870 
 330   0.0000       2.632624        71.6373 
 331   0.0000       2.633415        71.6589 
 332   0.0000       2.637625        71.7734 
 333   0.0000       2.638201        71.7891 
 334   0.0000       2.641020        71.8658 
 335   0.0000       2.644289        71.9548 
 336   0.0000       2.649122        72.0863 
 337   0.0000       2.655520        72.2604 
 338   0.0000       2.657780        72.3219 
 339   0.0000       2.658376        72.3381 
 340   0.0000       2.661907        72.4342 
 341   0.0000       2.665888        72.5425 
 342   0.0000       2.704085        73.5819 
 343   0.0000       2.713322        73.8332 
 344   0.0000       2.717091        73.9358 
 345   0.0000       2.718019        73.9611 
 346   0.0000       2.728206        74.2383 
 347   0.0000       2.732018        74.3420 
 348   0.0000       2.748374        74.7871 
 349   0.0000       2.749559        74.8193 
 350   0.0000       2.760248        75.1102 
 351   0.0000       2.785712        75.8031 
 352   0.0000       2.788553        75.8804 
 353   0.0000       2.789434        75.9043 
 354   0.0000       2.790839        75.9426 
 355   0.0000       2.800714        76.2113 
 356   0.0000       2.803041        76.2746 
 357   0.0000       2.852506        77.6206 
 358   0.0000       2.854343        77.6706 
 359   0.0000       2.855783        77.7098 
 360   0.0000       2.856876        77.7396 
 361   0.0000       2.912936        79.2650 
 362   0.0000       2.962831        80.6227 
 363   0.0000       2.976871        81.0048 
 364   0.0000       3.000691        81.6529 
 365   0.0000       3.003654        81.7336 
 366   0.0000       3.024017        82.2877 
 367   0.0000       3.029168        82.4278 
 368   0.0000       3.039381        82.7058 
 369   0.0000       3.043253        82.8111 
 370   0.0000       3.073566        83.6360 
 371   0.0000       3.077149        83.7335 
 372   0.0000       3.089789        84.0774 
 373   0.0000       3.095496        84.2327 
 374   0.0000       3.112562        84.6971 
 375   0.0000       3.133560        85.2685 
 376   0.0000       3.157795        85.9280 
 377   0.0000       3.182791        86.6081 
 378   0.0000       3.348751        91.1241 
 379   0.0000       3.364113        91.5422 
 380   0.0000       3.365505        91.5800 
 381   0.0000       3.366184        91.5985 
 382   0.0000       3.368683        91.6665 
 383   0.0000       3.386191        92.1429 
 384   0.0000       3.451843        93.9294 
 385   0.0000       3.454053        93.9896 
 386   0.0000       3.455836        94.0381 
 387   0.0000       3.458127        94.1004 
 388   0.0000       3.481838        94.7456 
 389   0.0000       3.528418        96.0131 
 390   0.0000       3.560271        96.8799 
 391   0.0000       3.597042        97.8805 
 392   0.0000       3.597349        97.8888 
 393   0.0000       3.792154       103.1897 
 394   0.0000       3.794396       103.2508 
 395   0.0000       3.814161       103.7886 
 396   0.0000       3.815101       103.8142 
 397   0.0000       3.818389       103.9036 
 398   0.0000       3.819440       103.9322 
 399   0.0000       4.037310       109.8608 
 400   0.0000       4.037668       109.8705 
 401   0.0000       4.041417       109.9726 
 402   0.0000       4.044708       110.0621 
 403   0.0000       4.173150       113.5572 
 404   0.0000       4.174139       113.5841 
 405   0.0000       4.433916       120.6530 
 406   0.0000       4.435294       120.6905 
 407   0.0000       4.440626       120.8356 
 408   0.0000       4.442033       120.8739 
 409   0.0000       4.646579       126.4399 
 410   0.0000       4.648401       126.4894 
 411   0.0000       4.667241       127.0021 
 412   0.0000       4.668726       127.0425 
 413   0.0000       5.132416       139.6601 
 414   0.0000       5.132912       139.6736 
 415   0.0000       5.133425       139.6876 
 416   0.0000       5.134422       139.7147 
 417   0.0000       5.247654       142.7959 
 418   0.0000       5.249209       142.8382 
 419   0.0000       5.251795       142.9086 
 420   0.0000       5.253760       142.9621 
 421   0.0000       5.346498       145.4856 
 422   0.0000       5.364625       145.9789 
 423   0.0000       5.379932       146.3954 
 424   0.0000       5.382460       146.4642 
 425   0.0000       5.387402       146.5987 
 426   0.0000       5.392415       146.7351 
 427   0.0000       5.585834       151.9983 
 428   0.0000       5.591964       152.1651 
 429   0.0000       5.754818       156.5966 
 430   0.0000       5.756112       156.6318 
 431   0.0000       5.759943       156.7360 
 432   0.0000       5.761266       156.7720 
 433   0.0000       6.053747       164.7308 
 434   0.0000       6.057430       164.8310 
 435   0.0000      11.298966       307.4605 
 436   0.0000      11.300514       307.5026 
 437   0.0000      11.316088       307.9264 
 438   0.0000      11.327036       308.2243 
 439   0.0000      11.333434       308.3984 
 440   0.0000      11.334308       308.4222 
 441   0.0000      11.348124       308.7981 
 442   0.0000      11.364355       309.2398 
 443   0.0000      11.369753       309.3867 
 444   0.0000      11.372735       309.4679 
 445   0.0000      11.373864       309.4986 
 446   0.0000      11.375210       309.5352 
 447   0.0000      11.376996       309.5838 
 448   0.0000      11.393741       310.0394 
 449   0.0000      11.399081       310.1848 
 450   0.0000      11.410900       310.5064 
 451   0.0000      11.434670       311.1532 
 452   0.0000      11.437954       311.2425 
 453   0.0000      22.907554       623.3462 
 454   0.0000      22.917356       623.6130 
 455   0.0000      25.358367       690.0363 
 456   0.0000      25.366146       690.2479 
 457   0.0000      25.452847       692.6072 
 458   0.0000      25.461960       692.8552 
 459   0.0000      25.568706       695.7598 
 460   0.0000      25.616418       697.0582 
 461   0.0000      32.688008       889.4859 
 462   0.0000      32.710090       890.0868 
 463   0.0000      35.898969       976.8606 
 464   0.0000      36.031492       980.4667 
 465   0.0000      36.034644       980.5525 
 466   0.0000      36.190751       984.8004 
 467   0.0000     123.878598      3370.9080 

                    ********************************
                    * MULLIKEN POPULATION ANALYSIS *
                    ********************************

-----------------------
MULLIKEN ATOMIC CHARGES
-----------------------
   0 C :   -0.243404
   1 N :   -0.297963
   2 H :    0.114854
   3 H :    0.112472
   4 H :    0.114249
   5 H :    0.271303
   6 H :    0.270946
   7 H :    0.268627
   8 Pb:    1.115795
   9 Cl:   -0.734007
  10 Cl:   -0.715215
  11 Cl:   -0.726192
  12 Cl:   -0.717084
  13 Cl:   -0.714934
  14 Cl:   -0.729706
  15 N :   -0.300163
  16 C :   -0.243851
  17 H :    0.275096
  18 H :    0.268768
  19 H :    0.114549
  20 H :    0.114323
  21 H :    0.111860
  22 H :    0.269674
Sum of atomic charges:   -2.0000000

--------------------------------
MULLIKEN REDUCED ORBITAL CHARGES
--------------------------------
  0 C s       :     3.240292  s :     3.240292
      pz      :     0.996510  p :     2.916337
      px      :     0.981454
      py      :     0.938372
      dz2     :     0.007962  d :     0.080331
      dxz     :     0.020817
      dyz     :     0.019503
      dx2y2   :     0.012386
      dxy     :     0.019664
      f0      :     0.000298  f :     0.006444
      f+1     :     0.000603
      f-1     :     0.000844
      f+2     :     0.000680
      f-2     :     0.002511
      f+3     :     0.000659
      f-3     :     0.000849
  1 N s       :     3.411681  s :     3.411681
      pz      :     1.297226  p :     3.835823
      px      :     1.286824
      py      :     1.251773
      dz2     :     0.004054  d :     0.048191
      dxz     :     0.012997
      dyz     :     0.012219
      dx2y2   :     0.006326
      dxy     :     0.012595
      f0      :     0.000137  f :     0.002267
      f+1     :     0.000201
      f-1     :     0.000208
      f+2     :     0.000207
      f-2     :     0.001065
      f+3     :     0.000224
      f-3     :     0.000225
  2 H s       :     0.864109  s :     0.864109
      pz      :     0.008080  p :     0.021037
      px      :     0.007581
      py      :     0.005376
  3 H s       :     0.866535  s :     0.866535
      pz      :     0.006285  p :     0.020993
      px      :     0.007117
      py      :     0.007591
  4 H s       :     0.864716  s :     0.864716
      pz      :     0.007740  p :     0.021035
      px      :     0.006800
      py      :     0.006495
  5 H s       :     0.681511  s :     0.681511
      pz      :     0.012361  p :     0.047186
      px      :     0.017118
      py      :     0.017706
  6 H s       :     0.682538  s :     0.682538
      pz      :     0.014799  p :     0.046516
      px      :     0.011318
      py      :     0.020399
  7 H s       :     0.685966  s :     0.685966
      pz      :     0.019672  p :     0.045406
      px      :     0.018467
      py      :     0.007268
  8 Pbs       :     4.013905  s :     4.013905
      pz      :     2.240529  p :     6.710426
      px      :     2.229547
      py      :     2.240350
      dz2     :     2.042183  d :    10.132340
      dxz     :     2.014571
      dyz     :     2.017253
      dx2y2   :     2.043136
      dxy     :     2.015198
      f0      :     0.006550  f :     0.027534
      f+1     :     0.003740
      f-1     :     0.004819
      f+2     :     0.002146
      f-2     :     0.000302
      f+3     :     0.004618
      f-3     :     0.005360
  9 Cls       :     5.958399  s :     5.958399
      pz      :     3.945711  p :    11.768043
      px      :     3.905839
      py      :     3.916494
      dz2     :     0.000841  d :     0.007281
      dxz     :     0.000666
      dyz     :     0.002261
      dx2y2   :     0.002527
      dxy     :     0.000986
      f0      :     0.000040  f :     0.000282
      f+1     :     0.000031
      f-1     :     0.000032
      f+2     :     0.000058
      f-2     :     0.000053
      f+3     :     0.000059
      f-3     :     0.000010
 10 Cls       :     5.958058  s :     5.958058
      pz      :     3.933124  p :    11.748675
      px      :     3.935457
      py      :     3.880094
      dz2     :     0.001364  d :     0.008178
      dxz     :     0.002580
      dyz     :     0.000726
      dx2y2   :     0.002961
      dxy     :     0.000547
      f0      :     0.000019  f :     0.000304
      f+1     :     0.000078
      f-1     :     0.000038
      f+2     :     0.000072
      f-2     :     0.000016
      f+3     :     0.000016
      f-3     :     0.000065
 11 Cls       :     5.957940  s :     5.957940
      pz      :     3.902939  p :    11.759928
      px      :     3.935931
      py      :     3.921057
      dz2     :     0.003128  d :     0.008003
      dxz     :     0.000866
      dyz     :     0.001025
      dx2y2   :     0.000444
      dxy     :     0.002540
      f0      :     0.000091  f :     0.000321
      f+1     :     0.000016
      f-1     :     0.000023
      f+2     :     0.000005
      f-2     :     0.000063
      f+3     :     0.000072
      f-3     :     0.000051
 12 Cls       :     5.957154  s :     5.957154
      pz      :     3.941018  p :    11.750833
      px      :     3.894098
      py      :     3.915716
      dz2     :     0.001079  d :     0.008732
      dxz     :     0.000825
      dyz     :     0.002752
      dx2y2   :     0.003039
      dxy     :     0.001037
      f0      :     0.000047  f :     0.000365
      f+1     :     0.000043
      f-1     :     0.000048
      f+2     :     0.000082
      f-2     :     0.000060
      f+3     :     0.000068
      f-3     :     0.000018
 13 Cls       :     5.958063  s :     5.958063
      pz      :     3.889391  p :    11.748360
      px      :     3.938859
      py      :     3.920110
      dz2     :     0.003622  d :     0.008204
      dxz     :     0.000920
      dyz     :     0.001118
      dx2y2   :     0.000384
      dxy     :     0.002161
      f0      :     0.000106  f :     0.000308
      f+1     :     0.000018
      f-1     :     0.000030
      f+2     :     0.000006
      f-2     :     0.000051
      f+3     :     0.000060
      f-3     :     0.000038
 14 Cls       :     5.958397  s :     5.958397
      pz      :     3.938603  p :    11.763465
      px      :     3.927140
      py      :     3.897721
      dz2     :     0.001055  d :     0.007556
      dxz     :     0.002843
      dyz     :     0.000621
      dx2y2   :     0.002472
      dxy     :     0.000565
      f0      :     0.000024  f :     0.000288
      f+1     :     0.000075
      f-1     :     0.000027
      f+2     :     0.000086
      f-2     :     0.000018
      f+3     :     0.000016
      f-3     :     0.000043
 15 N s       :     3.412447  s :     3.412447
      pz      :     1.298067  p :     3.837201
      px      :     1.289358
      py      :     1.249776
      dz2     :     0.004040  d :     0.048246
      dxz     :     0.013086
      dyz     :     0.012262
      dx2y2   :     0.006408
      dxy     :     0.012449
      f0      :     0.000134  f :     0.002269
      f+1     :     0.000203
      f-1     :     0.000209
      f+2     :     0.000208
      f-2     :     0.001055
      f+3     :     0.000230
      f-3     :     0.000229
 16 C s       :     3.240366  s :     3.240366
      pz      :     0.998131  p :     2.916592
      px      :     0.984193
      py      :     0.934268
      dz2     :     0.007856  d :     0.080447
      dxz     :     0.020861
      dyz     :     0.019395
      dx2y2   :     0.012638
      dxy     :     0.019697
      f0      :     0.000291  f :     0.006446
      f+1     :     0.000598
      f-1     :     0.000852
      f+2     :     0.000681
      f-2     :     0.002476
      f+3     :     0.000667
      f-3     :     0.000881
 17 H s       :     0.676938  s :     0.676938
      pz      :     0.015498  p :     0.047966
      px      :     0.011406
      py      :     0.021063
 18 H s       :     0.685598  s :     0.685598
      pz      :     0.012161  p :     0.045635
      px      :     0.016321
      py      :     0.017152
 19 H s       :     0.864414  s :     0.864414
      pz      :     0.007803  p :     0.021037
      px      :     0.006753
      py      :     0.006482
 20 H s       :     0.864645  s :     0.864645
      pz      :     0.006172  p :     0.021032
      px      :     0.007239
      py      :     0.007620
 21 H s       :     0.867160  s :     0.867160
      pz      :     0.008166  p :     0.020980
      px      :     0.007575
      py      :     0.005239
 22 H s       :     0.683920  s :     0.683920
      pz      :     0.019771  p :     0.046407
      px      :     0.019388
      py      :     0.007247


                     *******************************
                     * LOEWDIN POPULATION ANALYSIS *
                     *******************************

----------------------
LOEWDIN ATOMIC CHARGES
----------------------
   0 C :   -0.325956
   1 N :    0.038147
   2 H :    0.109909
   3 H :    0.108729
   4 H :    0.109418
   5 H :    0.131358
   6 H :    0.133904
   7 H :    0.139786
   8 Pb:    0.211700
   9 Cl:   -0.546112
  10 Cl:   -0.496052
  11 Cl:   -0.521988
  12 Cl:   -0.500102
  13 Cl:   -0.497088
  14 Cl:   -0.534262
  15 N :    0.036667
  16 C :   -0.326616
  17 H :    0.127537
  18 H :    0.138314
  19 H :    0.109638
  20 H :    0.109362
  21 H :    0.108584
  22 H :    0.135123

-------------------------------
LOEWDIN REDUCED ORBITAL CHARGES
-------------------------------
  0 C s       :     2.849178  s :     2.849178
      pz      :     1.050282  p :     3.101490
      px      :     1.040709
      py      :     1.010499
      dz2     :     0.031306  d :     0.335801
      dxz     :     0.085538
      dyz     :     0.084853
      dx2y2   :     0.045707
      dxy     :     0.088397
      f0      :     0.004605  f :     0.039486
      f+1     :     0.004329
      f-1     :     0.006659
      f+2     :     0.004149
      f-2     :     0.006848
      f+3     :     0.005724
      f-3     :     0.007172
  1 N s       :     3.018823  s :     3.018823
      pz      :     1.266526  p :     3.779063
      px      :     1.262980
      py      :     1.249557
      dz2     :     0.014284  d :     0.154279
      dxz     :     0.040000
      dyz     :     0.038654
      dx2y2   :     0.021243
      dxy     :     0.040099
      f0      :     0.001215  f :     0.009687
      f+1     :     0.001108
      f-1     :     0.001469
      f+2     :     0.000984
      f-2     :     0.001924
      f+3     :     0.001345
      f-3     :     0.001642
  2 H s       :     0.830222  s :     0.830222
      pz      :     0.022430  p :     0.059869
      px      :     0.021074
      py      :     0.016365
  3 H s       :     0.831432  s :     0.831432
      pz      :     0.018042  p :     0.059839
      px      :     0.021091
      py      :     0.020706
  4 H s       :     0.830668  s :     0.830668
      pz      :     0.022716  p :     0.059914
      px      :     0.019164
      py      :     0.018033
  5 H s       :     0.719592  s :     0.719592
      pz      :     0.042676  p :     0.149050
      px      :     0.052612
      py      :     0.053762
  6 H s       :     0.719534  s :     0.719534
      pz      :     0.045347  p :     0.146562
      px      :     0.038921
      py      :     0.062294
  7 H s       :     0.719540  s :     0.719540
      pz      :     0.060050  p :     0.140675
      px      :     0.055898
      py      :     0.024726
  8 Pbs       :     3.933370  s :     3.933370
      pz      :     2.398009  p :     7.179785
      px      :     2.381085
      py      :     2.400691
      dz2     :     2.218241  d :    10.603728
      dxz     :     2.050349
      dyz     :     2.065322
      dx2y2   :     2.217530
      dxy     :     2.052286
      f0      :     0.017621  f :     0.071417
      f+1     :     0.009482
      f-1     :     0.012399
      f+2     :     0.005126
      f-2     :     0.000649
      f+3     :     0.011997
      f-3     :     0.014144
  9 Cls       :     5.864325  s :     5.864325
      pz      :     3.925021  p :    11.669118
      px      :     3.853297
      py      :     3.890800
      dz2     :     0.001233  d :     0.012066
      dxz     :     0.000916
      dyz     :     0.004055
      dx2y2   :     0.004340
      dxy     :     0.001523
      f0      :     0.000071  f :     0.000602
      f+1     :     0.000054
      f-1     :     0.000055
      f+2     :     0.000136
      f-2     :     0.000124
      f+3     :     0.000139
      f-3     :     0.000024
 10 Cls       :     5.844111  s :     5.844111
      pz      :     3.901530  p :    11.636942
      px      :     3.905085
      py      :     3.830328
      dz2     :     0.002401  d :     0.014337
      dxz     :     0.004736
      dyz     :     0.000748
      dx2y2   :     0.005971
      dxy     :     0.000481
      f0      :     0.000024  f :     0.000661
      f+1     :     0.000182
      f-1     :     0.000079
      f+2     :     0.000184
      f-2     :     0.000020
      f+3     :     0.000034
      f-3     :     0.000139
 11 Cls       :     5.854280  s :     5.854280
      pz      :     3.849207  p :    11.653297
      px      :     3.909790
      py      :     3.894300
      dz2     :     0.005661  d :     0.013716
      dxz     :     0.001214
      dyz     :     0.001677
      dx2y2   :     0.000489
      dxy     :     0.004675
      f0      :     0.000206  f :     0.000695
      f+1     :     0.000032
      f-1     :     0.000051
      f+2     :     0.000007
      f-2     :     0.000149
      f+3     :     0.000148
      f-3     :     0.000101
 12 Cls       :     5.846412  s :     5.846412
      pz      :     3.915188  p :    11.637830
      px      :     3.840894
      py      :     3.881748
      dz2     :     0.001708  d :     0.015060
      dxz     :     0.001037
      dyz     :     0.005130
      dx2y2   :     0.005521
      dxy     :     0.001664
      f0      :     0.000081  f :     0.000800
      f+1     :     0.000080
      f-1     :     0.000093
      f+2     :     0.000197
      f-2     :     0.000138
      f+3     :     0.000166
      f-3     :     0.000045
 13 Cls       :     5.844791  s :     5.844791
      pz      :     3.834397  p :    11.637326
      px      :     3.911256
      py      :     3.891672
      dz2     :     0.006890  d :     0.014302
      dxz     :     0.001136
      dyz     :     0.001798
      dx2y2   :     0.000445
      dxy     :     0.004032
      f0      :     0.000245  f :     0.000669
      f+1     :     0.000029
      f-1     :     0.000063
      f+2     :     0.000008
      f-2     :     0.000122
      f+3     :     0.000128
      f-3     :     0.000074
 14 Cls       :     5.859509  s :     5.859509
      pz      :     3.910273  p :    11.661463
      px      :     3.900916
      py      :     3.850273
      dz2     :     0.001681  d :     0.012676
      dxz     :     0.005098
      dyz     :     0.000637
      dx2y2   :     0.004709
      dxy     :     0.000550
      f0      :     0.000034  f :     0.000615
      f+1     :     0.000163
      f-1     :     0.000049
      f+2     :     0.000215
      f-2     :     0.000025
      f+3     :     0.000044
      f-3     :     0.000085
 15 N s       :     3.019110  s :     3.019110
      pz      :     1.266998  p :     3.780070
      px      :     1.264435
      py      :     1.248637
      dz2     :     0.014223  d :     0.154447
      dxz     :     0.039830
      dyz     :     0.038884
      dx2y2   :     0.021419
      dxy     :     0.040092
      f0      :     0.001203  f :     0.009707
      f+1     :     0.001096
      f-1     :     0.001489
      f+2     :     0.000985
      f-2     :     0.001921
      f+3     :     0.001354
      f-3     :     0.001659
 16 C s       :     2.849153  s :     2.849153
      pz      :     1.051240  p :     3.101668
      px      :     1.042083
      py      :     1.008345
      dz2     :     0.030998  d :     0.336290
      dxz     :     0.085778
      dyz     :     0.084639
      dx2y2   :     0.046846
      dxy     :     0.088029
      f0      :     0.004519  f :     0.039505
      f+1     :     0.004207
      f-1     :     0.006756
      f+2     :     0.004154
      f-2     :     0.006814
      f+3     :     0.005693
      f-3     :     0.007362
 17 H s       :     0.719631  s :     0.719631
      pz      :     0.048008  p :     0.152832
      px      :     0.039460
      py      :     0.065364
 18 H s       :     0.719735  s :     0.719735
      pz      :     0.041626  p :     0.141951
      px      :     0.049420
      py      :     0.050906
 19 H s       :     0.830481  s :     0.830481
      pz      :     0.022876  p :     0.059881
      px      :     0.019066
      py      :     0.017939
 20 H s       :     0.830732  s :     0.830732
      pz      :     0.017782  p :     0.059906
      px      :     0.021376
      py      :     0.020748
 21 H s       :     0.831622  s :     0.831622
      pz      :     0.022667  p :     0.059794
      px      :     0.021110
      py      :     0.016016
 22 H s       :     0.719290  s :     0.719290
      pz      :     0.061355  p :     0.145586
      px      :     0.059530
      py      :     0.024701


                      *****************************
                      * MAYER POPULATION ANALYSIS *
                      *****************************

  NA   - Mulliken gross atomic population
  ZA   - Total nuclear charge
  QA   - Mulliken gross atomic charge
  VA   - Mayer's total valence
  BVA  - Mayer's bonded valence
  FA   - Mayer's free valence

  ATOM       NA         ZA         QA         VA         BVA        FA
  0 C      6.2434     6.0000    -0.2434     3.9538     3.9538    -0.0000
  1 N      7.2980     7.0000    -0.2980     3.1139     3.1139    -0.0000
  2 H      0.8851     1.0000     0.1149     0.9671     0.9671    -0.0000
  3 H      0.8875     1.0000     0.1125     0.9658     0.9658     0.0000
  4 H      0.8858     1.0000     0.1142     0.9665     0.9665    -0.0000
  5 H      0.7287     1.0000     0.2713     1.0226     1.0226    -0.0000
  6 H      0.7291     1.0000     0.2709     1.0247     1.0247    -0.0000
  7 H      0.7314     1.0000     0.2686     1.0169     1.0169    -0.0000
  8 Pb    20.8842    22.0000     1.1158     1.5375     1.5375     0.0000
  9 Cl    17.7340    17.0000    -0.7340     0.4866     0.4866    -0.0000
 10 Cl    17.7152    17.0000    -0.7152     0.5162     0.5162     0.0000
 11 Cl    17.7262    17.0000    -0.7262     0.4983     0.4983     0.0000
 12 Cl    17.7171    17.0000    -0.7171     0.5145     0.5145     0.0000
 13 Cl    17.7149    17.0000    -0.7149     0.5170     0.5170     0.0000
 14 Cl    17.7297    17.0000    -0.7297     0.4931     0.4931    -0.0000
 15 N      7.3002     7.0000    -0.3002     3.1115     3.1115     0.0000
 16 C      6.2439     6.0000    -0.2439     3.9544     3.9544     0.0000
 17 H      0.7249     1.0000     0.2751     1.0174     1.0174     0.0000
 18 H      0.7312     1.0000     0.2688     1.0181     1.0181    -0.0000
 19 H      0.8855     1.0000     0.1145     0.9666     0.9666    -0.0000
 20 H      0.8857     1.0000     0.1143     0.9664     0.9664     0.0000
 21 H      0.8881     1.0000     0.1119     0.9662     0.9662    -0.0000
 22 H      0.7303     1.0000     0.2697     1.0249     1.0249    -0.0000

  Mayer bond orders larger than 0.1
B(  0-C ,  1-N ) :   0.9580 B(  0-C ,  2-H ) :   0.9796 B(  0-C ,  3-H ) :   0.9791 
B(  0-C ,  4-H ) :   0.9789 B(  1-N ,  5-H ) :   0.7581 B(  1-N ,  6-H ) :   0.7594 
B(  1-N ,  7-H ) :   0.7773 B(  5-H , 11-Cl) :   0.2674 B(  6-H ,  9-Cl) :   0.2692 
B(  7-H , 10-Cl) :   0.2414 B(  8-Pb,  9-Cl) :   0.2311 B(  8-Pb, 10-Cl) :   0.2871 
B(  8-Pb, 11-Cl) :   0.2430 B(  8-Pb, 12-Cl) :   0.2608 B(  8-Pb, 13-Cl) :   0.2832 
B(  8-Pb, 14-Cl) :   0.2392 B( 12-Cl, 17-H ) :   0.2653 B( 13-Cl, 18-H ) :   0.2467 
B( 14-Cl, 22-H ) :   0.2667 B( 15-N , 16-C ) :   0.9586 B( 15-N , 17-H ) :   0.7557 
B( 15-N , 18-H ) :   0.7737 B( 15-N , 22-H ) :   0.7616 B( 16-C , 19-H ) :   0.9791 
B( 16-C , 20-H ) :   0.9791 B( 16-C , 21-H ) :   0.9796 

-------
TIMINGS
-------

Total SCF time: 0 days 0 hours 6 min 53 sec 

Total time                  ....     413.989 sec
Sum of individual times     ....     344.196 sec  ( 83.1%)

Fock matrix formation       ....     326.869 sec  ( 79.0%)
  Coulomb formation         ....     273.255 sec  ( 83.6% of F)
  Split-RI-J                ....      21.880 sec  (  6.7% of F)
  Chain of spheres X        ....     318.663 sec  ( 97.5% of F)
  XC integration            ....      53.733 sec  ( 16.4% of F)
    Basis function eval.    ....      25.986 sec  ( 48.4% of XC)
    Density eval.           ....      13.340 sec  ( 24.8% of XC)
    XC-Functional eval.     ....       2.525 sec  (  4.7% of XC)
    XC-Potential eval.      ....      10.642 sec  ( 19.8% of XC)
Diagonalization             ....       0.258 sec  (  0.1%)
Density matrix formation    ....       0.103 sec  (  0.0%)
Population analysis         ....       0.408 sec  (  0.1%)
Initial guess               ....       0.837 sec  (  0.2%)
Orbital Transformation      ....       0.000 sec  (  0.0%)
Orbital Orthonormalization  ....       0.822 sec  (  0.2%)
DIIS solution               ....       0.064 sec  (  0.0%)
SOSCF solution              ....       0.513 sec  (  0.1%)
Grid generation             ....      15.144 sec  (  3.7%)

------------------------------------------------------------------------------
                              ORCA MP2 CALCULATION
------------------------------------------------------------------------------


----------------------
RI-MP2 ENERGY+GRADIENT
----------------------
Dimension of the basis                    ...  468
Memory devoted to MP2                     ... 1000 MB   
Data format for buffers                   ... DOUBLE
Compression type for matrix containers    ... UNCOMPRESSED
Overall scaling of the MP2 energy         ...   2.700e-01 Eh
Calculating two index integrals           ... done (    0.020 sec)
Cholesky decomposition of the V-matrix    ... done
Cholesky decomposition of V**-1           ... done (    0.083 sec)

-----------------
RI-TRANSFORMATION (AUX index driven)
-----------------

Dimension of the orbital-basis         ... 468
Dimension of the aux-basis             ... 810
Transformation of internal MOs         ...    0-  81
Transformation of internal/external MOs...    0-  81 to   82- 467
Number Format for Storage              ... Double (8 Byte)
Integral mode                          ... Direct

First Phase: integral generation and transformation of MO indices
  Aux angular momentum 0               ... done (    2.386 sec)
  Aux angular momentum 1               ... done (    2.036 sec)
  Aux angular momentum 2               ... done (    2.523 sec)
  Aux angular momentum 3               ... done (    1.247 sec)
  Aux angular momentum 4               ... done (    1.190 sec)
Closing buffer VIJ ( 0.02 GB; CompressionRatio= 1.98)
Closing buffer VIA ( 0.19 GB; CompressionRatio= 1.00)
  Phase 1 completed in     9.492 sec
Second Phase: sorting and transformation of aux index

IJ-Transformation
Memory available                       ... 972 MB 
Max. # MO pairs treated in a batch     ... 82    
# of internal orbitals                 ... 82
# batches for internal orbitals        ... 1
Closing buffer IJV ( 0.02 GB; CompressionRatio= 1.00)
(ij|v) transformation done in     0.767 sec

IA-Transformation
Memory available                       ... 972 MB 
Max. # MO pairs treated in a batch     ... 82    
# of internal orbitals                 ... 82
# batches for internal orbitals        ... 1
Closing buffer IAV ( 0.19 GB; CompressionRatio= 1.00)
(ia|v) transformation done in     2.851 sec

  Phase 2 completed in     4.372 sec
RI-Integral transformation completed in    13.865 sec
Opening buffers                              ... done

Starting loop over batches of integrals:

Operator 0  - window                       ... (  0- 81)x( 82-467)
Operator 0  - Memory available             ...  1000 MB
Operator 0  - Memory needed per MO         ...   4.8 MB
Operator 0  - Number of orbitals per batch ... 82
Operator 0  - Number of batches            ... 1

OPERATOR  0   PASS   0:  MOs     0 ...   81
  Reading integrals       ... ok
  Internal MO   2
  Internal MO   5
  Internal MO   8
  Internal MO  11
  Internal MO  14
  Internal MO  17
  Internal MO  20
  Internal MO  23
  Internal MO  26
  Internal MO  29
  Internal MO  32
  Internal MO  35
  Internal MO  38
  Internal MO  41
  Internal MO  44
  Internal MO  47
  Internal MO  50
  Internal MO  53
  Internal MO  56
  Internal MO  59
  Internal MO  62
  Internal MO  65
  Internal MO  68
  Internal MO  71
  Internal MO  74
  Internal MO  77
  Internal MO  80
Closing buffer GIPV ( 0.23 GB; CompressionRatio= 1.00)
Time spent in pair loops =   745.011 sec

-----------------------------------------------
 RI-MP2 CORRELATION ENERGY:     -1.014341371 Eh
-----------------------------------------------


---------------------
MP2 DENSITY FORMATION
---------------------

Completing the external part of the density      ... done
Storing the unrelaxed density                    ... done

Calculating the xc-kernel                        ... done
Calculating G(D)                                 ... done
Completing the Lagrangian                        ... done
Solving the Z-vector equations                   ... 

------------------------------------------------------------------------------
                           ORCA CP-SCF CALCULATION
------------------------------------------------------------------------------

Input orbitals are from        ... PbCl6NH3CH3-2_mp2_sp_5.orca.gbw
Input Perturbation             ... PbCl6NH3CH3-2_mp2_sp_5.orca.pin.tmp
Wavefunction output            ... PbCl6NH3CH3-2_mp2_sp_5.orca.pout.tmp
Perturbation mode              ... Real perturbation
Solver                         ... POPLE
Max. number of iterations      ... 128
Convergence tolerance          ... 1.000e-08
Integral handling              ... Direct
COSX GridX                     ... 1
Number of perturbations        ... 1
[...]
      pz      :     0.008339  p :     0.021731
      px      :     0.007789
      py      :     0.005602
 22 H s       :     0.692901  s :     0.692901
      pz      :     0.019674  p :     0.046553
      px      :     0.019327
      py      :     0.007553


                     *******************************
                     * LOEWDIN POPULATION ANALYSIS *
                     *******************************

----------------------
LOEWDIN ATOMIC CHARGES
----------------------
   0 C :   -0.340280
   1 N :    0.032352
   2 H :    0.112417
   3 H :    0.111262
   4 H :    0.111930
   5 H :    0.128335
   6 H :    0.130931
   7 H :    0.136894
   8 Pb:    0.148402
   9 Cl:   -0.528383
  10 Cl:   -0.478244
  11 Cl:   -0.504419
  12 Cl:   -0.482612
  13 Cl:   -0.479286
  14 Cl:   -0.516511
  15 N :    0.030897
  16 C :   -0.340936
  17 H :    0.124630
  18 H :    0.135384
  19 H :    0.112157
  20 H :    0.111873
  21 H :    0.111118
  22 H :    0.132088

-------------------------------
LOEWDIN REDUCED ORBITAL CHARGES
-------------------------------
  0 C s       :     2.849995  s :     2.849995
      pz      :     1.052369  p :     3.108066
      px      :     1.042852
      py      :     1.012845
      dz2     :     0.033358  d :     0.341141
      dxz     :     0.085910
      dyz     :     0.085348
      dx2y2   :     0.047743
      dxy     :     0.088783
      f0      :     0.004837  f :     0.041078
      f+1     :     0.004524
      f-1     :     0.006845
      f+2     :     0.004325
      f-2     :     0.007232
      f+3     :     0.005950
      f-3     :     0.007365
  1 N s       :     3.020835  s :     3.020835
      pz      :     1.263479  p :     3.768950
      px      :     1.259756
      py      :     1.245714
      dz2     :     0.016619  d :     0.166700
      dxz     :     0.042638
      dyz     :     0.041194
      dx2y2   :     0.023603
      dxy     :     0.042646
      f0      :     0.001417  f :     0.011163
      f+1     :     0.001297
      f-1     :     0.001653
      f+2     :     0.001167
      f-2     :     0.002245
      f+3     :     0.001550
      f-3     :     0.001834
  2 H s       :     0.825568  s :     0.825568
      pz      :     0.023164  p :     0.062015
      px      :     0.021805
      py      :     0.017046
  3 H s       :     0.826734  s :     0.826734
      pz      :     0.018738  p :     0.062004
      px      :     0.021788
      py      :     0.021479
  4 H s       :     0.825996  s :     0.825996
      pz      :     0.023413  p :     0.062074
      px      :     0.019882
      py      :     0.018779
  5 H s       :     0.721611  s :     0.721611
      pz      :     0.043147  p :     0.150053
      px      :     0.052896
      py      :     0.054010
  6 H s       :     0.721457  s :     0.721457
      pz      :     0.045691  p :     0.147612
      px      :     0.039404
      py      :     0.062517
  7 H s       :     0.721292  s :     0.721292
      pz      :     0.060350  p :     0.141814
      px      :     0.056213
      py      :     0.025252
  8 Pbs       :     3.910620  s :     3.910620
      pz      :     2.426851  p :     7.266940
      px      :     2.410545
      py      :     2.429544
      dz2     :     2.208110  d :    10.568091
      dxz     :     2.045377
      dyz     :     2.059970
      dx2y2   :     2.207467
      dxy     :     2.047166
      f0      :     0.022251  f :     0.105947
      f+1     :     0.014491
      f-1     :     0.017284
      f+2     :     0.010332
      f-2     :     0.005771
      f+3     :     0.016906
      f-3     :     0.018912
  9 Cls       :     5.861754  s :     5.861754
      pz      :     3.907876  p :    11.611425
      px      :     3.831467
      py      :     3.872082
      dz2     :     0.009102  d :     0.051914
      dxz     :     0.008851
      dyz     :     0.012075
      dx2y2   :     0.012379
      dxy     :     0.009508
      f0      :     0.000451  f :     0.003290
      f+1     :     0.000432
      f-1     :     0.000436
      f+2     :     0.000526
      f-2     :     0.000509
      f+3     :     0.000527
      f-3     :     0.000408
 10 Cls       :     5.841773  s :     5.841773
      pz      :     3.883172  p :    11.578778
      px      :     3.886888
      py      :     3.808718
      dz2     :     0.010350  d :     0.054327
      dxz     :     0.012817
      dyz     :     0.008713
      dx2y2   :     0.014009
      dxy     :     0.008437
      f0      :     0.000405  f :     0.003365
      f+1     :     0.000573
      f-1     :     0.000462
      f+2     :     0.000579
      f-2     :     0.000401
      f+3     :     0.000419
      f-3     :     0.000526
 11 Cls       :     5.851817  s :     5.851817
      pz      :     3.827704  p :    11.595517
      px      :     3.891987
      py      :     3.875826
      dz2     :     0.013722  d :     0.053689
      dxz     :     0.009190
      dyz     :     0.009674
      dx2y2   :     0.008366
      dxy     :     0.012736
      f0      :     0.000600  f :     0.003396
      f+1     :     0.000417
      f-1     :     0.000439
      f+2     :     0.000384
      f-2     :     0.000537
      f+3     :     0.000534
      f-3     :     0.000485
 12 Cls       :     5.844050  s :     5.844050
      pz      :     3.897735  p :    11.579952
      px      :     3.819292
      py      :     3.862924
      dz2     :     0.009612  d :     0.055099
      dxz     :     0.008997
      dyz     :     0.013211
      dx2y2   :     0.013598
      dxy     :     0.009681
      f0      :     0.000463  f :     0.003511
      f+1     :     0.000462
      f-1     :     0.000479
      f+2     :     0.000592
      f-2     :     0.000525
      f+3     :     0.000557
      f-3     :     0.000433
 13 Cls       :     5.842451  s :     5.842451
      pz      :     3.812809  p :    11.579162
      px      :     3.893367
      py      :     3.872987
      dz2     :     0.014968  d :     0.054298
      dxz     :     0.009112
      dyz     :     0.009813
      dx2y2   :     0.008323
      dxy     :     0.012083
      f0      :     0.000642  f :     0.003374
      f+1     :     0.000416
      f-1     :     0.000453
      f+2     :     0.000385
      f-2     :     0.000509
      f+3     :     0.000513
      f-3     :     0.000456
 14 Cls       :     5.857000  s :     5.857000
      pz      :     3.892372  p :    11.603620
      px      :     3.882554
      py      :     3.828694
      dz2     :     0.009600  d :     0.052583
      dxz     :     0.013176
      dyz     :     0.008574
      dx2y2   :     0.012741
      dxy     :     0.008492
      f0      :     0.000415  f :     0.003308
      f+1     :     0.000553
      f-1     :     0.000428
      f+2     :     0.000610
      f-2     :     0.000405
      f+3     :     0.000427
      f-3     :     0.000469
 15 N s       :     3.021132  s :     3.021132
      pz      :     1.263905  p :     3.769867
      px      :     1.261191
      py      :     1.244771
      dz2     :     0.016557  d :     0.166920
      dxz     :     0.042498
      dyz     :     0.041438
      dx2y2   :     0.023794
      dxy     :     0.042632
      f0      :     0.001404  f :     0.011184
      f+1     :     0.001285
      f-1     :     0.001673
      f+2     :     0.001170
      f-2     :     0.002241
      f+3     :     0.001561
      f-3     :     0.001851
 16 C s       :     2.849969  s :     2.849969
      pz      :     1.053327  p :     3.108220
      px      :     1.044221
      py      :     1.010672
      dz2     :     0.033023  d :     0.341649
      dxz     :     0.086178
      dyz     :     0.085179
      dx2y2   :     0.048869
      dxy     :     0.088400
      f0      :     0.004750  f :     0.041098
      f+1     :     0.004405
      f-1     :     0.006944
      f+2     :     0.004331
      f-2     :     0.007195
      f+3     :     0.005920
      f-3     :     0.007553
 17 H s       :     0.721601  s :     0.721601
      pz      :     0.048301  p :     0.153769
      px      :     0.039939
      py      :     0.065528
 18 H s       :     0.721543  s :     0.721543
      pz      :     0.042113  p :     0.143074
      px      :     0.049752
      py      :     0.051209
 19 H s       :     0.825809  s :     0.825809
      pz      :     0.023572  p :     0.062034
      px      :     0.019780
      py      :     0.018681
 20 H s       :     0.826060  s :     0.826060
      pz      :     0.018476  p :     0.062068
      px      :     0.022068
      py      :     0.021524
 21 H s       :     0.826920  s :     0.826920
      pz      :     0.023410  p :     0.061961
      px      :     0.021849
      py      :     0.016702
 22 H s       :     0.721253  s :     0.721253
      pz      :     0.061632  p :     0.146659
      px      :     0.059799
      py      :     0.025229


                      *****************************
                      * MAYER POPULATION ANALYSIS *
                      *****************************

  NA   - Mulliken gross atomic population
  ZA   - Total nuclear charge
  QA   - Mulliken gross atomic charge
  VA   - Mayer's total valence
  BVA  - Mayer's bonded valence
  FA   - Mayer's free valence

  ATOM       NA         ZA         QA         VA         BVA        FA
  0 C      6.2696     6.0000    -0.2696     4.0016     3.8836     0.1180
  1 N      7.2902     7.0000    -0.2902     3.1977     3.0505     0.1472
  2 H      0.8806     1.0000     0.1194     0.9698     0.9500     0.0198
  3 H      0.8829     1.0000     0.1171     0.9684     0.9486     0.0199
  4 H      0.8812     1.0000     0.1188     0.9692     0.9493     0.0198
  5 H      0.7381     1.0000     0.2619     1.0307     1.0088     0.0219
  6 H      0.7379     1.0000     0.2621     1.0323     1.0103     0.0220
  7 H      0.7403     1.0000     0.2597     1.0250     1.0030     0.0220
  8 Pb    20.9707    22.0000     1.0293     1.9814     1.6191     0.3623
  9 Cl    17.7095    17.0000    -0.7095     0.7691     0.5125     0.2566
 10 Cl    17.6897    17.0000    -0.6897     0.8004     0.5425     0.2580
 11 Cl    17.7013    17.0000    -0.7013     0.7813     0.5244     0.2570
 12 Cl    17.6919    17.0000    -0.6919     0.7978     0.5404     0.2573
 13 Cl    17.6894    17.0000    -0.6894     0.8011     0.5433     0.2579
 14 Cl    17.7049    17.0000    -0.7049     0.7761     0.5192     0.2569
 15 N      7.2924     7.0000    -0.2924     3.1956     3.0481     0.1475
 16 C      6.2700     6.0000    -0.2700     4.0021     3.8840     0.1181
 17 H      0.7341     1.0000     0.2659     1.0253     1.0035     0.0218
 18 H      0.7403     1.0000     0.2597     1.0264     1.0043     0.0220
 19 H      0.8809     1.0000     0.1191     0.9693     0.9494     0.0198
 20 H      0.8811     1.0000     0.1189     0.9690     0.9492     0.0198
 21 H      0.8835     1.0000     0.1165     0.9688     0.9490     0.0199
 22 H      0.7395     1.0000     0.2605     1.0329     1.0108     0.0221

  Mayer bond orders larger than 0.1
B(  0-C ,  1-N ) :   0.9404 B(  0-C ,  2-H ) :   0.9609 B(  0-C ,  3-H ) :   0.9603 
B(  0-C ,  4-H ) :   0.9601 B(  1-N ,  5-H ) :   0.7391 B(  1-N ,  6-H ) :   0.7403 
B(  1-N ,  7-H ) :   0.7577 B(  5-H , 11-Cl) :   0.2728 B(  6-H ,  9-Cl) :   0.2741 
B(  7-H , 10-Cl) :   0.2473 B(  8-Pb,  9-Cl) :   0.2440 B(  8-Pb, 10-Cl) :   0.3000 
B(  8-Pb, 11-Cl) :   0.2556 B(  8-Pb, 12-Cl) :   0.2733 B(  8-Pb, 13-Cl) :   0.2960 
B(  8-Pb, 14-Cl) :   0.2519 B( 12-Cl, 17-H ) :   0.2705 B( 13-Cl, 18-H ) :   0.2527 
B( 14-Cl, 22-H ) :   0.2721 B( 15-N , 16-C ) :   0.9409 B( 15-N , 17-H ) :   0.7369 
B( 15-N , 18-H ) :   0.7542 B( 15-N , 22-H ) :   0.7423 B( 16-C , 19-H ) :   0.9603 
B( 16-C , 20-H ) :   0.9603 B( 16-C , 21-H ) :   0.9607 


-------
TIMINGS
-------

Total time                : 1493.719 sec
Integral trafo            :   13.876 sec (  0.9%)
I/O of integrals          :    0.896 sec (  0.1%)
K(i,j) Operators          :   97.290 sec (  6.5%)
T(i,j) pair energies      :   12.198 sec (  0.8%)
V-calculation             :    0.020 sec (  0.0%)
V**(-1/2)                 :    0.083 sec (  0.0%)
Gamma(ia|P)               :   88.875 sec (  5.9%)
Gamma-Trafo               :    6.293 sec (  0.4%)
D(virtual)                :   43.682 sec (  2.9%)
D(internal)               :   86.295 sec (  5.8%)
W(virtual)                :   87.701 sec (  5.9%)
W(internal)               :  274.325 sec ( 18.4%)
L(virtual)                :   43.459 sec (  2.9%)
L(internal)               :    1.816 sec (  0.1%)
G(D)                      :   39.289 sec (  2.6%)
G(Z)                      :   40.699 sec (  2.7%)
Z-Vector Solution         :  326.290 sec ( 21.8%)
Z-Vector Solution         :  326.290 sec ( 21.8%)
3-Index Derivative 
+ Separable RIJ part      :   17.181 sec (  1.2%)
2-Index Derivative 
+ Separable RIJ part      :    0.102 sec (  0.0%)
Separable Gradient (COSX) :  305.700 sec ( 20.5%)


---------------------------------------
MP2 TOTAL ENERGY:    -3146.564328800 Eh
---------------------------------------

The final MP2 gradient
  0:  -0.00034833  -0.00035996   0.00010822
  1:   0.00365288   0.00035984   0.00427002
  2:   0.00318341  -0.00186054   0.00343060
  3:  -0.00281177   0.00311632   0.00242784
  4:   0.00260276   0.00261578  -0.00309479
  5:  -0.00301417  -0.00279509   0.00338133
  6:   0.00191486  -0.00319002  -0.00297511
  7:  -0.00587017   0.00281731  -0.00593705
  8:  -0.00186151   0.00226684  -0.00133309
  9:   0.00366896  -0.00128090   0.00024042
 10:  -0.00032452   0.00237624  -0.00042708
 11:   0.00117433   0.00027743   0.00186010
 12:  -0.00167656  -0.00283399  -0.00153281
 13:   0.00027052  -0.00062151  -0.00229475
 14:   0.00151531  -0.00256438   0.00101958
 15:  -0.00405751  -0.00146190   0.00072574
 16:  -0.00013401   0.00012353   0.00059016
 17:  -0.00290511   0.00410713   0.00292654
 18:   0.00474226   0.00489195  -0.00475228
 19:  -0.00275190  -0.00271995   0.00298595
 20:   0.00295184  -0.00296470  -0.00242676
 21:  -0.00301442   0.00195149  -0.00327496
 22:   0.00285814  -0.00198283   0.00421121

-----------------------------------
NORM OF THE MP2 GRADIENT:  0.022827
-----------------------------------

Entering the calculation of the dispersion correction...

Checking the input atom types...

Done


-------------------------------------------------------------------------------
                          DFT DISPERSION CORRECTION                            
                                                                               
                                DFTD3 V2.1  Rev 6                               
                          USING Becke-Johnson damping                          
-------------------------------------------------------------------------------
The B2PLYP functional is recognized
Active option DFTDOPT                   ...         4   

molecular C6(AA) [au] = 13709.983119 


            DFT-D V3
 parameters
 s6 scaling factor         :     0.6400 
 a1 scaling factor         :     0.3065 
 s8 scaling factor         :     0.9147 
 a2 scaling factor         :     5.0570 
 ad hoc parameters k1-k3   :    16.0000     1.3333    -4.0000 

 Edisp/kcal,au: -17.506112741233  -0.027897763456 
 E6   /kcal   :  -8.241924411 
 E8   /kcal   :  -9.264188330 
 % E8         :  52.919734191 

-------------------------   ----------------
Dispersion correction           -0.027897763
-------------------------   ----------------


-------------------------   --------------------
FINAL SINGLE POINT ENERGY     -3146.592226563399
-------------------------   --------------------


                            ***************************************
                            *     ORCA property calculations      *
                            ***************************************


  WARNING: The energy has been calculated at the MP2 level but the densities
           used in the property calculations are still SCF densities
           MP2 response densities have not been calculated 
           use %mp2 Density relaxed end
           or  %mp2 Density unrelaxed end

                                    ---------------------
                                    Active property flags
                                    ---------------------
   (+) Dipole Moment


------------------------------------------------------------------------------
                       ORCA ELECTRIC PROPERTIES CALCULATION
------------------------------------------------------------------------------

Dipole Moment Calculation                       ... on
Quadrupole Moment Calculation                   ... off
Polarizability Calculation                      ... off
GBWName                                         ... PbCl6NH3CH3-2_mp2_sp_5.orca.gbw
Electron density file                           ... PbCl6NH3CH3-2_mp2_sp_5.orca.scfp.tmp

-------------
DIPOLE MOMENT
-------------
                                X             Y             Z
Electronic contribution:     -2.92409       4.94308      -4.69340
Nuclear contribution   :      2.62808      -4.68757       4.50133
                        -----------------------------------------
Total Dipole Moment    :     -0.29601       0.25551      -0.19207
                        -----------------------------------------
Magnitude (a.u.)       :      0.43566
Magnitude (Debye)      :      1.10735


                         *** MP2 UNRELAXED DENSITY ***

------------------------------------------------------------------------------
                       ORCA ELECTRIC PROPERTIES CALCULATION
------------------------------------------------------------------------------

Dipole Moment Calculation                       ... on
Quadrupole Moment Calculation                   ... off
Polarizability Calculation                      ... off
GBWName                                         ... PbCl6NH3CH3-2_mp2_sp_5.orca.gbw
Electron density file                           ... PbCl6NH3CH3-2_mp2_sp_5.orca.pmp2ur

-------------
DIPOLE MOMENT
-------------
                                X             Y             Z
Electronic contribution:     -2.92326       4.94222      -4.69344
Nuclear contribution   :      2.62808      -4.68757       4.50133
                        -----------------------------------------
Total Dipole Moment    :     -0.29518       0.25466      -0.19211
                        -----------------------------------------
Magnitude (a.u.)       :      0.43461
Magnitude (Debye)      :      1.10470


                           *** MP2 RELAXED DENSITY ***

------------------------------------------------------------------------------
                       ORCA ELECTRIC PROPERTIES CALCULATION
------------------------------------------------------------------------------

Dipole Moment Calculation                       ... on
Quadrupole Moment Calculation                   ... off
Polarizability Calculation                      ... off
GBWName                                         ... PbCl6NH3CH3-2_mp2_sp_5.orca.gbw
Electron density file                           ... PbCl6NH3CH3-2_mp2_sp_5.orca.pmp2re

-------------
DIPOLE MOMENT
-------------
                                X             Y             Z
Electronic contribution:     -2.91691       4.93737      -4.69052
Nuclear contribution   :      2.62808      -4.68757       4.50133
                        -----------------------------------------
Total Dipole Moment    :     -0.28882       0.24980      -0.18919
                        -----------------------------------------
Magnitude (a.u.)       :      0.42616
Magnitude (Debye)      :      1.08322


Timings for individual modules:

Sum of individual times         ...     1910.325 sec (=  31.839 min)
GTO integral calculation        ...        1.371 sec (=   0.023 min)   0.1 %
SCF iterations                  ...      414.973 sec (=   6.916 min)  21.7 %
MP2 module                      ...     1493.981 sec (=  24.900 min)  78.2 %
                             ****ORCA TERMINATED NORMALLY****
TOTAL RUN TIME: 0 days 0 hours 31 minutes 52 seconds 14 msec
