
                                 *****************
                                 * O   R   C   A *
                                 *****************

           --- An Ab Initio, DFT and Semiempirical electronic structure package ---

                  #######################################################
                  #                        -***-                        #
                  #  Department of molecular theory and spectroscopy    #
                  #              Directorship: Frank Neese              #
                  # Max Planck Institute for Chemical Energy Conversion #
                  #                  D-45470 Muelheim/Ruhr              #
                  #                       Germany                       #
                  #                                                     #
                  #                  All rights reserved                #
                  #                        -***-                        #
                  #######################################################


                         Program Version 3.0.3 - RELEASE   -


 With contributions from (in alphabetic order):
   Ute Becker             : Parallelization
   Dmytro Bykov           : SCF Hessian
   Dmitry Ganyushin       : Spin-Orbit,Spin-Spin,Magnetic field MRCI
   Andreas Hansen         : Spin unrestricted coupled pair/coupled cluster methods
   Dimitrios Liakos       : Extrapolation schemes; parallel MDCI
   Robert Izsak           : Overlap fitted RIJCOSX, COSX-SCS-MP3
   Christian Kollmar      : KDIIS, OOCD, Brueckner-CCSD(T), CCSD density
   Simone Kossmann        : Meta GGA functionals, TD-DFT gradient, OOMP2, MP2 Hessian
   Taras Petrenko         : DFT Hessian,TD-DFT gradient, ASA and ECA modules, normal mode analysis, Resonance Raman, ABS, FL, XAS/XES, NRVS
   Christoph Reimann      : Effective Core Potentials
   Michael Roemelt        : Restricted open shell CIS
   Christoph Riplinger    : Improved optimizer, TS searches, QM/MM, DLPNO-CCSD
   Barbara Sandhoefer     : DKH picture change effects
   Igor Schapiro          : Molecular dynamics
   Kantharuban Sivalingam : CASSCF convergence, NEVPT2
   Boris Wezisla          : Elementary symmetry handling
   Frank Wennmohs         : Technical directorship


 We gratefully acknowledge several colleagues who have allowed us to
 interface, adapt or use parts of their codes:
   Stefan Grimme, W. Hujo, H. Kruse, T. Risthaus : VdW corrections, initial TS optimization,
                                                   DFT functionals, gCP
   Ed Valeev                                     : LibInt (2-el integral package), F12 methods
   Garnet Chan, S. Sharma, R. Olivares           : DMRG
   Ulf Ekstrom                                   : XCFun DFT Library
   Mihaly Kallay                                 : mrcc  (arbitrary order and MRCC methods)
   Andreas Klamt, Michael Diedenhofen            : otool_cosmo (COSMO solvation model)
   Frank Weinhold                                : gennbo (NPA and NBO analysis)
   Christopher J. Cramer and Donald G. Truhlar   : smd solvation model


 Your calculation uses the libint2 library for the computation of 2-el integrals
 For citations please refer to: http://libint.valeyev.net

 This ORCA versions uses:
   CBLAS   interface :  Fast vector & matrix operations
   LAPACKE interface :  Fast linear algebra routines
   SCALAPACK package :  Parallel linear algebra routines


Your calculation utilizes the basis: Ahlrichs-TZV
Cite in your paper:
H - Kr: A. Schaefer, H. Horn and R. Ahlrichs, J. Chem. Phys. 97, 2571 (1992).

The def2-TZV basis will be loaded
Cite in your paper:
 	F. Weigend, R. Ahlrichs, Phys. Chem. Chem. Phys. 2005, 7, 3297.

Your calculation utilizes the atom-pairwise dispersion correction
with the Becke-Johnson damping scheme (D3BJ)
Cite in your paper:
S.Grimme, S.Ehrlich, L.Goerigk, J Comput Chem, (2011), 32, 1456–1465 
S.Grimme, J.Antony, S.Ehrlich and H.Krieg, J.Chem.Phys., 132, (2010), 154104 
   

================================================================================
                                        WARNINGS
                       Please study these warnings very carefully!
================================================================================

WARNING: The RI method has been chosen with no auxiliary basis (AUX or GTOAUX in BASIS block)
        Standard TZV/J expansion basis used (GTOAUX=TZV_J)

Now building the actual basis set
cite the ECPs for Pb [SD(60,MDF)] as follows:
  B. Metz, H. Stoll, M. Dolg, J. Chem. Phys. 113, 2563 (2000).

ECP parameters for Pb [SD(60,MDF)] have been obtained from:
  pseudopotential library of the Stuttgart/Cologne group
  http://www.theochem.uni-stuttgart.de/pseudopotentials/

cite the ECP basis sets for Pb [DEF2-TZVP] as follows:
  F. Weigend, R. Ahlrichs; Phys. Chem. Chem. Phys. 7, 3297(2005).

ECP basis sets for Pb [DEF2-TZVP] have been obtained from:
  Turbomole basis set library
  ftp://ftp.chemie.uni-karlsruhe.de/pub/basen/



INFO   : the flag for use of LIBINT has been found!

================================================================================
                                       INPUT FILE
================================================================================
NAME = PbMACl3_mp2_md2_10.orca
|  1> ! RIJCOSX RI-B2PLYP D3BJ def2-TZVP ECP{def2-TZVP} TIGHTSCF Grid5 FinalGrid6 SlowConv MORead
|  2> %method
|  3>  RunTyp Gradient
|  4>  end
|  5> %maxcore 1000
|  6> %moinp "previous.gbw"
|  7> *xyz 0 1
|  8> C -0.394281 0.276013 -0.426662 
|  9> N -1.165380 -0.685592 -1.253010 
| 10> H 0.248796 -0.278576 0.260517 
| 11> H -1.090820 0.897444 0.140826 
| 12> H 0.215705 0.904875 -1.079130 
| 13> H -1.783150 -1.324970 -0.698370 
| 14> H -0.582260 -1.326300 -1.835140 
| 15> H -1.813140 -0.240924 -1.938260 
| 16> Pb -2.952340 -2.965230 -2.970500 
| 17> Cl -0.669887 -2.890000 -2.788010 
| 18> Cl -3.336060 -0.725554 -2.842520 
| 19> Cl -3.109480 -2.971000 -0.560211 
| 20> *
| 21> 
| 22>                          ****END OF INPUT****
================================================================================

                     *******************************
                     * Energy+Gradient Calculation *
                     *******************************

---------------------------------
CARTESIAN COORDINATES (ANGSTROEM)
---------------------------------
  C     -0.394281    0.276013   -0.426662
  N     -1.165380   -0.685592   -1.253010
  H      0.248796   -0.278576    0.260517
  H     -1.090820    0.897444    0.140826
  H      0.215705    0.904875   -1.079130
  H     -1.783150   -1.324970   -0.698370
  H     -0.582260   -1.326300   -1.835140
  H     -1.813140   -0.240924   -1.938260
  Pb    -2.952340   -2.965230   -2.970500
  Cl    -0.669887   -2.890000   -2.788010
  Cl    -3.336060   -0.725554   -2.842520
  Cl    -3.109480   -2.971000   -0.560211

----------------------------
CARTESIAN COORDINATES (A.U.)
----------------------------
  NO LB      ZA    FRAG    MASS        X           Y           Z
   0 C     6.0000    0    12.011         -0.745083109808605          0.521588979402006         -0.806274331751109
   1 N     7.0000    0    14.007         -2.202249041949148         -1.295581119607339         -2.367845743064668
   2 H     1.0000    0     1.008          0.470156303215072         -0.526432347483247          0.492305783230763
   3 H     1.0000    0     1.008         -2.061351061403979          1.695923380530824          0.266122572535594
   4 H     1.0000    0     1.008          0.407623375717484          1.709965935431992         -2.039260162898440
   5 H     1.0000    0     1.008         -3.369665155701680         -2.503830435661641         -1.319728040146585
   6 H     1.0000    0     1.008         -1.100311938736988         -2.506343771419756         -3.467912017404246
   7 H     1.0000    0     1.008         -3.426338042457978         -0.455280379088844         -3.662780576334205
   8 Pb   22.0000*   0   207.200  -5.579114054221068  -5.603472624087313  -5.613431480813078
   9 Cl   17.0000    0    35.453         -1.265902970674106         -5.461308527032418         -5.268575358633789
  10 Cl   17.0000    0    35.453         -6.304239766329331         -1.371098355371100         -5.371584330193836
  11 Cl   17.0000    0    35.453         -5.876065618905454         -5.614376343880039         -1.058645367210158
* core charge reduced due to ECP

--------------------------------
INTERNAL COORDINATES (ANGSTROEM)
--------------------------------
 C      0   0   0   0.000000     0.000     0.000
 N      1   0   0   1.483957     0.000     0.000
 H      1   2   0   1.092397   109.099     0.000
 H      1   2   3   1.092422   109.061   240.173
 H      1   2   3   1.092367   109.305   120.114
 H      2   1   3   1.047888   114.015    60.210
 H      2   1   3   1.043749   114.711   299.789
 H      2   1   3   1.042540   114.361   179.708
 Pb     6   2   1   3.036451    99.238   180.915
 Cl     7   2   1   1.833248   141.886   163.669
 Cl     8   2   1   1.836256   136.587   202.937
 Cl     6   2   1   2.118408   151.370   185.974

---------------------------
INTERNAL COORDINATES (A.U.)
---------------------------
 C      0   0   0   0.000000     0.000     0.000
 N      1   0   0   2.804273     0.000     0.000
 H      1   2   0   2.064332   109.099     0.000
 H      1   2   3   2.064378   109.061   240.173
 H      1   2   3   2.064274   109.305   120.114
 H      2   1   3   1.980222   114.015    60.210
 H      2   1   3   1.972399   114.711   299.789
 H      2   1   3   1.970116   114.361   179.708
 Pb     6   2   1   5.738060    99.238   180.915
 Cl     7   2   1   3.464336   141.886   163.669
 Cl     8   2   1   3.470022   136.587   202.937
 Cl     6   2   1   4.003212   151.370   185.974

---------------------
BASIS SET INFORMATION
---------------------
There are 5 groups of distinct atoms

 Group   1 Type C   : 11s6p2d1f contracted to 5s3p2d1f pattern {62111/411/11/1}
 Group   2 Type N   : 11s6p2d1f contracted to 5s3p2d1f pattern {62111/411/11/1}
 Group   3 Type H   : 5s1p contracted to 3s1p pattern {311/1}
 Group   4 Type Pb  : 10s9p8d2f contracted to 6s5p3d2f pattern {421111/33111/611/11}
 Group   5 Type Cl  : 14s9p3d1f contracted to 5s5p2d1f pattern {73211/51111/21/1}

Atom   0C    basis set group =>   1
Atom   1N    basis set group =>   2
Atom   2H    basis set group =>   3
Atom   3H    basis set group =>   3
Atom   4H    basis set group =>   3
Atom   5H    basis set group =>   3
Atom   6H    basis set group =>   3
Atom   7H    basis set group =>   3
Atom   8Pb   basis set group =>   4
Atom   9Cl   basis set group =>   5
Atom  10Cl   basis set group =>   5
Atom  11Cl   basis set group =>   5
-------------------------------
AUXILIARY BASIS SET INFORMATION
-------------------------------
There are 5 groups of distinct atoms

 Group   1 Type C   : 12s5p4d2f1g contracted to 6s4p3d1f1g pattern {711111/2111/211/2/1}
 Group   2 Type N   : 12s5p4d2f1g contracted to 6s4p3d1f1g pattern {711111/2111/211/2/1}
 Group   3 Type H   : 5s2p1d contracted to 3s1p1d pattern {311/2/1}
 Group   4 Type Pb  : 31s12p8d6f3g contracted to 31s12p8d6f3g pattern {1111111111111111111111111111111/111111111111/11111111/111111/111}
 Group   5 Type Cl  : 14s5p5d2f1g contracted to 8s4p3d1f1g pattern {71111111/2111/311/2/1}

Atom   0C    basis set group =>   1
Atom   1N    basis set group =>   2
Atom   2H    basis set group =>   3
Atom   3H    basis set group =>   3
Atom   4H    basis set group =>   3
Atom   5H    basis set group =>   3
Atom   6H    basis set group =>   3
Atom   7H    basis set group =>   3
Atom   8Pb   basis set group =>   4
Atom   9Cl   basis set group =>   5
Atom  10Cl   basis set group =>   5
Atom  11Cl   basis set group =>   5

-------------------------
ECP PARAMETER INFORMATION
-------------------------

 Group 1, Type Pb ECP SD(60,MDF) (replacing 60 core electrons, lmax=5)

Atom   8Pb   ECP group =>   1


------------------------------------------------------------------------------
                           ORCA GTO INTEGRAL CALCULATION
                           -- RI-GTO INTEGRALS CHOSEN --
------------------------------------------------------------------------------

                         BASIS SET STATISTICS AND STARTUP INFO

Gaussian basis set:
 # of primitive gaussian shells          ...  186
 # of primitive gaussian functions       ...  420
 # of contracted shells                  ...  101
 # of contracted basis functions         ...  259
 Highest angular momentum                ...    3
 Maximum contraction depth               ...    7
Auxiliary gaussian basis set:
 # of primitive gaussian shells          ...  237
 # of primitive gaussian functions       ...  643
 # of contracted shells                  ...  171
 # of contracted aux-basis functions     ...  493
 Highest angular momentum                ...    4
 Maximum contraction depth               ...    7
Ratio of auxiliary to basis functions    ...  1.90
Integral package used                  ... LIBINT
 One Electron integrals                  
   ECP integrals                         ... done
 Ordering auxiliary basis shells         ... done
 Integral threshhold             Thresh  ...  2.500e-11
 Primitive cut-off               TCut    ...  2.500e-12
 Pre-screening matrix                    ... done
 Shell pair data                         ... 
 Ordering of the shell pairs             ... done (   0.001 sec) 4558 of 5151 pairs
 Determination of significant pairs      ... done (   0.000 sec)
 Creation of shell pair data             ... done (   0.002 sec)
 Storage of shell pair data              ... done (   0.001 sec)
 Shell pair data done in (   0.004 sec)
 Computing two index integrals           ... done
 Cholesky decomposition of the V-matrix  ... done


Timings:
 Total evaluation time                   ...   0.543 sec (  0.009 min)
 One electron matrix time                ...   0.284 sec (  0.005 min) = 52.2%
 Schwartz matrix evaluation time         ...   0.214 sec (  0.004 min) = 39.3%
 Two index repulsion integral time       ...   0.008 sec (  0.000 min) =  1.5%
 Cholesky decomposition of V             ...   0.008 sec (  0.000 min) =  1.4%
 Three index repulsion integral time     ...   0.000 sec (  0.000 min) =  0.0%

-------------------------------------------------------------------------------
                                 ORCA SCF
-------------------------------------------------------------------------------

------------
SCF SETTINGS
------------
Hamiltonian:
 Density Functional     Method          .... DFT(GTOs)
 Exchange Functional    Exchange        .... B88
   X-Alpha parameter    XAlpha          ....  0.666667
   Becke's b parameter  XBeta           ....  0.004200
 Correlation Functional Correlation     .... LYP
 LDA part of GGA corr.  LDAOpt          .... VWN-3
 Gradients option       PostSCFGGA      .... off
 Hybrid DFT is turned on
   Fraction HF Exchange ScalHFX         ....  0.530000
   Scaling of DF-GGA-X  ScalDFX         ....  0.470000
   Scaling of DF-GGA-C  ScalDFC         ....  0.730000
   Scaling of DF-LDA-C  ScalLDAC        ....  0.730000
   Perturbative correction              ....  0.270000
 RI-approximation to the Coulomb term is turned on
   Number of auxiliary basis functions  .... 493
   RIJ-COSX (HFX calculated with COS-X)).... on


General Settings:
 Integral files         IntName         .... PbMACl3_mp2_md2_10.orca
 Hartree-Fock type      HFTyp           .... RHF
 Total Charge           Charge          ....    0
 Multiplicity           Mult            ....    1
 Number of Electrons    NEL             ....   92
 Basis Dimension        Dim             ....  259
 Nuclear Repulsion      ENuc            ....    655.1359852850 Eh

Convergence Acceleration:
 DIIS                   CNVDIIS         .... on
   Start iteration      DIISMaxIt       ....     0
   Startup error        DIISStart       ....  0.200000
   # of expansion vecs  DIISMaxEq       ....     5
   Bias factor          DIISBfac        ....   1.050
   Max. coefficient     DIISMaxC        ....  10.000
 Newton-Raphson         CNVNR           .... off
 SOSCF                  CNVSOSCF        .... on
   Start iteration      SOSCFMaxIt      ....   150
   Startup grad/error   SOSCFStart      ....  0.001000
 Level Shifting         CNVShift        .... on
   Level shift para.    LevelShift      ....    0.2500
   Turn off err/grad.   ShiftErr        ....    0.0000
 Zerner damping         CNVZerner       .... off
 Static damping         CNVDamp         .... on
   Fraction old density DampFac         ....    0.8500
   Max. Damping (<1)    DampMax         ....    0.9800
   Min. Damping (>=0)   DampMin         ....    0.0000
   Turn off err/grad.   DampErr         ....    0.0300
 Fernandez-Rico         CNVRico         .... off

SCF Procedure:
 Maximum # iterations   MaxIter         ....   125
 SCF integral mode      SCFMode         .... Direct
   Integral package                     .... LIBINT
 Reset frequeny         DirectResetFreq ....    20
 Integral Threshold     Thresh          ....  2.500e-11 Eh
 Primitive CutOff       TCut            ....  2.500e-12 Eh

Convergence Tolerance:
 Convergence Check Mode ConvCheckMode   .... Total+1el-Energy
 Energy Change          TolE            ....  1.000e-08 Eh
 1-El. energy change                    ....  1.000e-05 Eh
 Orbital Gradient       TolG            ....  1.000e-05
 Orbital Rotation angle TolX            ....  1.000e-05
 DIIS Error             TolErr          ....  5.000e-07


Diagonalization of the overlap matrix:
Smallest eigenvalue                        ... 1.070e-03
Time for diagonalization                   ...    0.017 sec
Threshold for overlap eigenvalues          ... 1.000e-08
Number of eigenvalues below threshold      ... 0
Time for construction of square roots      ...    0.005 sec
Total time needed                          ...    0.023 sec

---------------------
INITIAL GUESS: MOREAD
---------------------
Guess MOs are being read from file: previous.gbw
Input geometry compatible with but different from current geometry
Input basis set matches current basis set (good)
MOs were renormalized
MOs were reorthogonalized (Schmidt)
                      ------------------
                      INITIAL GUESS DONE (   0.1 sec)
                      ------------------
-------------------
DFT GRID GENERATION
-------------------

General Integration Accuracy     IntAcc      ...  5.010
Radial Grid Type                 RadialGrid  ... Gauss-Chebyshev
Angular Grid (max. acc.)         AngularGrid ... Lebedev-434
Angular grid pruning method      GridPruning ... 3 (G Style)
Weight generation scheme         WeightScheme... Becke
Basis function cutoff            BFCut       ...    1.0000e-11
Integration weight cutoff        WCut        ...    1.0000e-14
Grids for H and He will be reduced by one unit

# of grid points (after initial pruning)     ... 115882 (   0.0 sec)
# of grid points (after weights+screening)   ... 108238 (   0.2 sec)
nearest neighbour list constructed           ...    0.0 sec
Grid point re-assignment to atoms done       ...    0.0 sec
Grid point division into batches done        ...    0.9 sec
Reduced shell lists constructed in    3.4 sec

Total number of grid points                  ...   108238
Total number of batches                      ...     1698
Average number of points per batch           ...       63
Average number of grid points per atom       ...     9020
Average number of shells per batch           ...    57.04 (56.48%)
Average number of basis functions per batch  ...   152.15 (58.75%)
Average number of large shells per batch     ...    43.76 (76.72%)
Average number of large basis fcns per batch ...   113.93 (74.88%)
Maximum spatial batch extension              ...  39.41, 33.21, 33.38 au
Average spatial batch extension              ...   2.39,  2.38,  2.41 au

Time for grid setup =    3.613 sec

--------------------
COSX GRID GENERATION
--------------------

General Integration Accuracy     IntAcc      ...  3.340
Radial Grid Type                 RadialGrid  ... Gauss-Chebyshev
Angular Grid (max. acc.)         AngularGrid ... Lebedev-50
Angular grid pruning method      GridPruning ... 3 (G Style)
Weight generation scheme         WeightScheme... Becke
Basis function cutoff            BFCut       ...    1.0000e-11
Integration weight cutoff        WCut        ...    1.0000e-14
Grids for H and He will be reduced by one unit

# of grid points (after initial pruning)     ...   6578 (   0.0 sec)
# of grid points (after weights+screening)   ...   6142 (   0.0 sec)
nearest neighbour list constructed           ...    0.0 sec
Grid point re-assignment to atoms done       ...    0.0 sec
Grid point division into batches done        ...    0.0 sec
Reduced shell lists constructed in    0.2 sec

Total number of grid points                  ...     6142
Total number of batches                      ...      102
Average number of points per batch           ...       60
Average number of grid points per atom       ...      512
Average number of shells per batch           ...    68.72 (68.04%)
Average number of basis functions per batch  ...   185.48 (71.61%)
Average number of large shells per batch     ...    54.74 (79.66%)
Average number of large basis fcns per batch ...   145.44 (78.41%)
Maximum spatial batch extension              ...  30.91, 26.56, 27.43 au
Average spatial batch extension              ...   5.92,  6.17,  6.74 au

Overlap Fitting                  UseSFitting ... on
Constructing numerical overlap ... done (      0.1 sec)
Inverting numerical overlap    ... done (      0.0 sec)
Obtaining analytic overlap     ... done (      0.0 sec)
Final contraction and storage  ... done (      0.0 sec)


General Integration Accuracy     IntAcc      ...  3.670
Radial Grid Type                 RadialGrid  ... Gauss-Chebyshev
Angular Grid (max. acc.)         AngularGrid ... Lebedev-50
Angular grid pruning method      GridPruning ... 3 (G Style)
Weight generation scheme         WeightScheme... Becke
Basis function cutoff            BFCut       ...    1.0000e-11
Integration weight cutoff        WCut        ...    1.0000e-14
Grids for H and He will be reduced by one unit

# of grid points (after initial pruning)     ...   8124 (   0.0 sec)
# of grid points (after weights+screening)   ...   7573 (   0.0 sec)
nearest neighbour list constructed           ...    0.0 sec
Grid point re-assignment to atoms done       ...    0.0 sec
Grid point division into batches done        ...    0.0 sec
Reduced shell lists constructed in    0.2 sec

Total number of grid points                  ...     7573
Total number of batches                      ...      124
Average number of points per batch           ...       61
Average number of grid points per atom       ...      631
Average number of shells per batch           ...    67.95 (67.28%)
Average number of basis functions per batch  ...   183.33 (70.78%)
Average number of large shells per batch     ...    53.77 (79.13%)
Average number of large basis fcns per batch ...   141.78 (77.34%)
Maximum spatial batch extension              ...  31.95, 27.47, 28.16 au
Average spatial batch extension              ...   5.53,  5.64,  6.05 au

Overlap Fitting                  UseSFitting ... on
Constructing numerical overlap ... done (      0.1 sec)
Inverting numerical overlap    ... done (      0.0 sec)
Obtaining analytic overlap     ... done (      0.0 sec)
Final contraction and storage  ... done (      0.0 sec)


General Integration Accuracy     IntAcc      ...  4.010
Radial Grid Type                 RadialGrid  ... Gauss-Chebyshev
Angular Grid (max. acc.)         AngularGrid ... Lebedev-110
Angular grid pruning method      GridPruning ... 3 (G Style)
Weight generation scheme         WeightScheme... Becke
Basis function cutoff            BFCut       ...    1.0000e-11
Integration weight cutoff        WCut        ...    1.0000e-14
Grids for H and He will be reduced by one unit

# of grid points (after initial pruning)     ...  15170 (   0.0 sec)
# of grid points (after weights+screening)   ...  14303 (   0.0 sec)
nearest neighbour list constructed           ...    0.0 sec
Grid point re-assignment to atoms done       ...    0.0 sec
Grid point division into batches done        ...    0.0 sec
Reduced shell lists constructed in    0.4 sec

Total number of grid points                  ...    14303
Total number of batches                      ...      229
Average number of points per batch           ...       62
Average number of grid points per atom       ...     1192
Average number of shells per batch           ...    64.33 (63.69%)
Average number of basis functions per batch  ...   173.36 (66.93%)
Average number of large shells per batch     ...    50.47 (78.45%)
Average number of large basis fcns per batch ...   133.27 (76.88%)
Maximum spatial batch extension              ...  30.75, 29.88, 34.29 au
Average spatial batch extension              ...   4.81,  4.87,  4.95 au

Overlap Fitting                  UseSFitting ... on
Constructing numerical overlap ... done (      0.2 sec)
Inverting numerical overlap    ... done (      0.0 sec)
Obtaining analytic overlap     ... done (      0.0 sec)
Final contraction and storage  ... done (      0.0 sec)

Time for X-Grid setup             =    1.384 sec
--------------
SCF ITERATIONS
--------------
ITER       Energy         Delta-E        Max-DP      RMS-DP      [F,P]     Damp
               ***  Starting incremental Fock matrix formation  ***
  0  -1668.9173500271   0.000000000000 0.01988763  0.00024838  0.6663055 0.8500
  1  -1668.9246158074  -0.007265780368 0.02504443  0.00028207  0.5668301 0.8500
                               ***Turning on DIIS***
  2  -1668.9310686483  -0.006452840902 0.02541232  0.00026866  0.4819370 0.8500
  3  -1668.9366034020  -0.005534753664 0.02624508  0.00025701  0.4097629 0.8500
  4  -1668.9413790652  -0.004775663148 0.02608710  0.00024507  0.3483598 0.8500
  5  -1668.9454882596  -0.004109194394 0.02417062  0.00022451  0.2961191 0.8500
  6  -1668.9490522700  -0.003564010469 0.02162901  0.00020023  0.2516980 0.8500
  7  -1668.9521491186  -0.003096848622 0.01895490  0.00017559  0.2139365 0.8500
  8  -1668.9548384511  -0.002689332443 0.01663197  0.00015332  0.1818427 0.8500
  9  -1668.9571635843  -0.002325133254 0.01457546  0.00013337  0.1545650 0.8500
 10  -1668.9591691585  -0.002005574127 0.01269181  0.00011549  0.1313801 0.8500
 11  -1668.9608968540  -0.001727695523 0.01097869  0.00009961  0.1116734 0.8500
 12  -1668.9623833119  -0.001486457928 0.00945627  0.00008567  0.0949232 0.8500
 13  -1668.9636604248  -0.001277112847 0.00813572  0.00007360  0.0806857 0.8500
 14  -1668.9647560493  -0.001095624531 0.00699934  0.00006319  0.0685839 0.8500
 15  -1668.9656947444  -0.000938695056 0.00601836  0.00005421  0.0582974 0.8500
 16  -1668.9664981320  -0.000803387697 0.00516910  0.00004648  0.0495539 0.8500
 17  -1668.9671850854  -0.000686953347 0.00443508  0.00003983  0.0421219 0.8500
 18  -1668.9677719881  -0.000586902678 0.00380331  0.00003412  0.0358045 0.8500
 19  -1668.9682730496  -0.000501061505 0.00326140  0.00002923  0.0304347 0.8500
               *** Restarting incremental Fock matrix formation ***
                                   *** Resetting DIIS ***
 20  -1668.9711118099  -0.002838760300 0.01559587  0.00014567  0.0258665 0.0000
                      *** Initiating the SOSCF procedure ***
                           *** Shutting down DIIS ***
                      *** Re-Reading the Fockian *** 
                      *** Removing any level shift *** 
ITER      Energy       Delta-E        Grad      Rot      Max-DP    RMS-DP
 21  -1668.97356452  -0.0024527055  0.000250  0.000250  0.002531  0.000021
               *** Restarting incremental Fock matrix formation ***
 22  -1668.97116181   0.0024027051  0.000377  0.000406  0.001687  0.000030
 23  -1668.97115889   0.0000029209  0.000103  0.000222  0.000556  0.000010
 24  -1668.97115779   0.0000011012  0.000057  0.000049  0.000320  0.000005
 25  -1668.97115884  -0.0000010492  0.000009  0.000013  0.000082  0.000001
 26  -1668.97115889  -0.0000000513  0.000005  0.000006  0.000011  0.000000
                  ***Gradient check signals convergence***
              ***Rediagonalizing the Fockian in SOSCF/NRSCF***

               *****************************************************
               *                     SUCCESS                       *
               *           SCF CONVERGED AFTER  27 CYCLES          *
               *****************************************************

Old exchange energy                            =    -59.310284782 Eh
New exchange energy                            =    -59.312257431 Eh
Exchange energy change after final integration =     -0.001972649 Eh
Total energy after final integration           =  -1668.973131528 Eh
Final COS-X integration done in                =    21.036 sec

----------------
TOTAL SCF ENERGY
----------------

Total Energy       :        -1668.97313153 Eh          -45415.06777 eV

Components:
Nuclear Repulsion  :          655.13598528 Eh           17827.15647 eV
Electronic Energy  :        -2324.10911681 Eh          -63242.22424 eV

One Electron Energy:        -3680.85647421 Eh         -100161.19676 eV
Two Electron Energy:         1356.74735740 Eh           36918.97252 eV

Virial components:
Potential Energy   :        -3207.61901184 Eh          -87283.75073 eV
Kinetic Energy     :         1538.64588031 Eh           41868.68297 eV
Virial Ratio       :            2.08470256


DFT components:
N(Alpha)           :       46.000013558204 electrons
N(Beta)            :       46.000013558204 electrons
N(Total)           :       92.000027116407 electrons
E(X)               :      -52.659494267879 Eh       
E(C)               :       -2.625019271802 Eh       
E(XC)              :      -55.284513539681 Eh       

---------------
SCF CONVERGENCE
---------------

  Last Energy change         ...    1.0105e-08  Tolerance :   1.0000e-08
  Last MAX-Density change    ...    2.1760e-14  Tolerance :   1.0000e-07
  Last RMS-Density change    ...    1.9693e-16  Tolerance :   5.0000e-09
  Last Orbital Gradient      ...    8.1259e-07  Tolerance :   1.0000e-05
  Last Orbital Rotation      ...    6.9872e-07  Tolerance :   1.0000e-05

             **** THE GBW FILE WAS UPDATED (PbMACl3_mp2_md2_10.orca.gbw) ****
             **** DENSITY FILE WAS UPDATED (PbMACl3_mp2_md2_10.orca.scfp.tmp) ****
             **** ENERGY FILE WAS UPDATED (PbMACl3_mp2_md2_10.orca.en.tmp) ****
----------------
ORBITAL ENERGIES
----------------

  NO   OCC          E(Eh)            E(eV) 
   0   2.0000    -102.869450     -2799.2200 
   1   2.0000    -102.867987     -2799.1802 
   2   2.0000    -102.845748     -2798.5751 
   3   2.0000     -14.928139      -406.2153 
   4   2.0000     -10.695354      -291.0354 
   5   2.0000      -9.881804      -268.8976 
   6   2.0000      -9.880850      -268.8716 
   7   2.0000      -9.855182      -268.1731 
   8   2.0000      -7.518841      -204.5981 
   9   2.0000      -7.517859      -204.5713 
  10   2.0000      -7.516739      -204.5409 
  11   2.0000      -7.516275      -204.5282 
  12   2.0000      -7.515730      -204.5134 
  13   2.0000      -7.515233      -204.4999 
  14   2.0000      -7.492350      -203.8772 
  15   2.0000      -7.490462      -203.8258 
  16   2.0000      -7.489924      -203.8112 
  17   2.0000      -5.773704      -157.1105 
  18   2.0000      -3.546372       -96.5017 
  19   2.0000      -3.546118       -96.4948 
  20   2.0000      -3.543089       -96.4124 
  21   2.0000      -1.122953       -30.5571 
  22   2.0000      -0.988959       -26.9109 
  23   2.0000      -0.975457       -26.5435 
  24   2.0000      -0.940502       -25.5924 
  25   2.0000      -0.938194       -25.5296 
  26   2.0000      -0.936023       -25.4705 
  27   2.0000      -0.929755       -25.2999 
  28   2.0000      -0.873914       -23.7804 
  29   2.0000      -0.857081       -23.3224 
  30   2.0000      -0.843164       -22.9437 
  31   2.0000      -0.654657       -17.8141 
  32   2.0000      -0.649994       -17.6872 
  33   2.0000      -0.588126       -16.0037 
  34   2.0000      -0.570043       -15.5117 
  35   2.0000      -0.513370       -13.9695 
  36   2.0000      -0.509169       -13.8552 
  37   2.0000      -0.417098       -11.3498 
  38   2.0000      -0.409234       -11.1358 
  39   2.0000      -0.395438       -10.7604 
  40   2.0000      -0.378917       -10.3108 
  41   2.0000      -0.365915        -9.9571 
  42   2.0000      -0.361771        -9.8443 
  43   2.0000      -0.341291        -9.2870 
  44   2.0000      -0.334986        -9.1154 
  45   2.0000      -0.284352        -7.7376 
  46   0.0000       0.035253         0.9593 
  47   0.0000       0.044906         1.2220 
  48   0.0000       0.049246         1.3400 
  49   0.0000       0.058833         1.6009 
  50   0.0000       0.103807         2.8247 
  51   0.0000       0.115888         3.1535 
  52   0.0000       0.123592         3.3631 
  53   0.0000       0.142454         3.8764 
  54   0.0000       0.150031         4.0826 
  55   0.0000       0.153094         4.1659 
  56   0.0000       0.154710         4.2099 
  57   0.0000       0.172173         4.6851 
  58   0.0000       0.187461         5.1011 
  59   0.0000       0.241869         6.5816 
  60   0.0000       0.253799         6.9062 
  61   0.0000       0.257392         7.0040 
  62   0.0000       0.268412         7.3039 
  63   0.0000       0.272114         7.4046 
  64   0.0000       0.275017         7.4836 
  65   0.0000       0.282590         7.6897 
  66   0.0000       0.314336         8.5535 
  67   0.0000       0.330517         8.9938 
  68   0.0000       0.334387         9.0991 
  69   0.0000       0.350297         9.5321 
  70   0.0000       0.390621        10.6293 
  71   0.0000       0.394485        10.7345 
  72   0.0000       0.407129        11.0785 
  73   0.0000       0.413478        11.2513 
  74   0.0000       0.420504        11.4425 
  75   0.0000       0.425831        11.5874 
  76   0.0000       0.444548        12.0968 
  77   0.0000       0.452936        12.3250 
  78   0.0000       0.457709        12.4549 
  79   0.0000       0.464433        12.6379 
  80   0.0000       0.478432        13.0188 
  81   0.0000       0.483385        13.1536 
  82   0.0000       0.499962        13.6046 
  83   0.0000       0.513208        13.9651 
  84   0.0000       0.526000        14.3132 
  85   0.0000       0.530098        14.4247 
  86   0.0000       0.530590        14.4381 
  87   0.0000       0.558128        15.1874 
  88   0.0000       0.567697        15.4478 
  89   0.0000       0.583974        15.8907 
  90   0.0000       0.607724        16.5370 
  91   0.0000       0.610094        16.6015 
  92   0.0000       0.616245        16.7689 
  93   0.0000       0.636262        17.3136 
  94   0.0000       0.641261        17.4496 
  95   0.0000       0.656648        17.8683 
  96   0.0000       0.682536        18.5727 
  97   0.0000       0.687068        18.6961 
  98   0.0000       0.695672        18.9302 
  99   0.0000       0.742780        20.2121 
 100   0.0000       0.764157        20.7938 
 101   0.0000       0.791310        21.5326 
 102   0.0000       0.796827        21.6828 
 103   0.0000       0.845811        23.0157 
 104   0.0000       0.861255        23.4359 
 105   0.0000       0.867244        23.5989 
 106   0.0000       0.903710        24.5912 
 107   0.0000       0.913915        24.8689 
 108   0.0000       0.928349        25.2617 
 109   0.0000       0.931298        25.3419 
 110   0.0000       0.943449        25.6725 
 111   0.0000       0.960803        26.1448 
 112   0.0000       0.980318        26.6758 
 113   0.0000       1.006460        27.3872 
 114   0.0000       1.010984        27.5103 
 115   0.0000       1.030201        28.0332 
 116   0.0000       1.074629        29.2421 
 117   0.0000       1.083096        29.4725 
 118   0.0000       1.088665        29.6241 
 119   0.0000       1.098728        29.8979 
 120   0.0000       1.114328        30.3224 
 121   0.0000       1.120650        30.4944 
 122   0.0000       1.154472        31.4148 
 123   0.0000       1.228686        33.4342 
 124   0.0000       1.243512        33.8377 
 125   0.0000       1.297130        35.2967 
 126   0.0000       1.389191        37.8018 
 127   0.0000       1.413936        38.4752 
 128   0.0000       1.442720        39.2584 
 129   0.0000       1.473119        40.0856 
 130   0.0000       1.506851        41.0035 
 131   0.0000       1.575582        42.8738 
 132   0.0000       1.590219        43.2721 
 133   0.0000       1.609664        43.8012 
 134   0.0000       1.618603        44.0444 
 135   0.0000       1.630861        44.3780 
 136   0.0000       1.745269        47.4912 
 137   0.0000       1.787688        48.6455 
 138   0.0000       1.815327        49.3976 
 139   0.0000       1.881320        51.1933 
 140   0.0000       1.883990        51.2660 
 141   0.0000       1.928361        52.4734 
 142   0.0000       1.932808        52.5944 
 143   0.0000       1.936851        52.7044 
 144   0.0000       1.964369        53.4532 
 145   0.0000       1.972212        53.6666 
 146   0.0000       1.984556        54.0025 
 147   0.0000       2.001524        54.4642 
 148   0.0000       2.005836        54.5816 
 149   0.0000       2.030100        55.2418 
 150   0.0000       2.038741        55.4770 
 151   0.0000       2.043075        55.5949 
 152   0.0000       2.063030        56.1379 
 153   0.0000       2.079185        56.5775 
 154   0.0000       2.089457        56.8570 
 155   0.0000       2.094595        56.9968 
 156   0.0000       2.097630        57.0794 
 157   0.0000       2.111740        57.4634 
 158   0.0000       2.136069        58.1254 
 159   0.0000       2.142009        58.2870 
 160   0.0000       2.154876        58.6372 
 161   0.0000       2.161715        58.8233 
 162   0.0000       2.178510        59.2803 
 163   0.0000       2.184484        59.4428 
 164   0.0000       2.192073        59.6493 
 165   0.0000       2.209459        60.1224 
 166   0.0000       2.211843        60.1873 
 167   0.0000       2.221980        60.4632 
 168   0.0000       2.225376        60.5556 
 169   0.0000       2.231502        60.7223 
 170   0.0000       2.237341        60.8811 
 171   0.0000       2.257632        61.4333 
 172   0.0000       2.268057        61.7170 
 173   0.0000       2.274201        61.8841 
 174   0.0000       2.278626        62.0046 
 175   0.0000       2.292063        62.3702 
 176   0.0000       2.314174        62.9719 
 177   0.0000       2.339748        63.6678 
 178   0.0000       2.359603        64.2081 
 179   0.0000       2.374194        64.6051 
 180   0.0000       2.380985        64.7899 
 181   0.0000       2.399850        65.3032 
 182   0.0000       2.403885        65.4130 
 183   0.0000       2.407370        65.5079 
 184   0.0000       2.413838        65.6839 
 185   0.0000       2.435190        66.2649 
 186   0.0000       2.439165        66.3731 
 187   0.0000       2.456571        66.8467 
 188   0.0000       2.462619        67.0113 
 189   0.0000       2.474970        67.3474 
 190   0.0000       2.494752        67.8856 
 191   0.0000       2.519505        68.5592 
 192   0.0000       2.551791        69.4378 
 193   0.0000       2.604929        70.8837 
 194   0.0000       2.611028        71.0497 
 195   0.0000       2.615493        71.1712 
 196   0.0000       2.635580        71.7178 
 197   0.0000       2.648436        72.0676 
 198   0.0000       2.683735        73.0281 
 199   0.0000       2.725769        74.1719 
 200   0.0000       2.746858        74.7458 
 201   0.0000       2.765927        75.2647 
 202   0.0000       2.793427        76.0130 
 203   0.0000       2.814232        76.5791 
 204   0.0000       2.824932        76.8703 
 205   0.0000       2.833553        77.1049 
 206   0.0000       2.917867        79.3992 
 207   0.0000       2.993256        81.4506 
 208   0.0000       3.035332        82.5956 
 209   0.0000       3.057822        83.2076 
 210   0.0000       3.112256        84.6888 
 211   0.0000       3.128245        85.1239 
 212   0.0000       3.194174        86.9179 
 213   0.0000       3.207166        87.2714 
 214   0.0000       3.258033        88.6556 
 215   0.0000       3.270684        88.9998 
 216   0.0000       3.320447        90.3540 
 217   0.0000       3.409578        92.7793 
 218   0.0000       3.567168        97.0676 
 219   0.0000       3.587746        97.6275 
 220   0.0000       3.605514        98.1110 
 221   0.0000       3.619435        98.4898 
 222   0.0000       3.815989       103.8383 
 223   0.0000       3.848961       104.7355 
 224   0.0000       3.971159       108.0607 
 225   0.0000       4.217748       114.7707 
 226   0.0000       4.234861       115.2364 
 227   0.0000       4.462341       121.4265 
 228   0.0000       4.464291       121.4795 
 229   0.0000       4.881394       132.8295 
 230   0.0000       4.884858       132.9237 
 231   0.0000       5.007164       136.2519 
 232   0.0000       5.026641       136.7818 
 233   0.0000       5.134713       139.7227 
 234   0.0000       5.153825       140.2427 
 235   0.0000       5.179269       140.9351 
 236   0.0000       5.354087       145.6921 
 237   0.0000       5.549388       151.0065 
 238   0.0000       5.592825       152.1885 
 239   0.0000       5.891842       160.3252 
 240   0.0000      11.049603       300.6750 
 241   0.0000      11.063615       301.0563 
 242   0.0000      11.078705       301.4669 
 243   0.0000      11.130073       302.8647 
 244   0.0000      11.194602       304.6206 
 245   0.0000      11.200686       304.7862 
 246   0.0000      11.270982       306.6990 
 247   0.0000      11.304378       307.6078 
 248   0.0000      11.325600       308.1852 
 249   0.0000      22.683384       617.2462 
 250   0.0000      25.455560       692.6810 
 251   0.0000      25.507917       694.1057 
 252   0.0000      25.706574       699.5114 
 253   0.0000      32.490538       884.1125 
 254   0.0000      35.600265       968.7325 
 255   0.0000      35.873225       976.1601 
 256   0.0000      35.992324       979.4009 
 257   0.0000      36.139317       983.4008 
 258   0.0000     123.687741      3365.7145 

                    ********************************
                    * MULLIKEN POPULATION ANALYSIS *
                    ********************************

-----------------------
MULLIKEN ATOMIC CHARGES
-----------------------
   0 C :   -0.253756
   1 N :   -0.326940
   2 H :    0.150628
   3 H :    0.150796
   4 H :    0.146955
   5 H :    0.283849
   6 H :    0.291773
   7 H :    0.288811
   8 Pb:    0.773758
   9 Cl:   -0.491911
  10 Cl:   -0.492545
  11 Cl:   -0.521416
Sum of atomic charges:   -0.0000000

--------------------------------
MULLIKEN REDUCED ORBITAL CHARGES
--------------------------------
  0 C s       :     3.270949  s :     3.270949
      pz      :     0.976130  p :     2.906479
      px      :     0.991322
      py      :     0.939027
      dz2     :     0.006889  d :     0.070314
      dxz     :     0.018780
      dyz     :     0.018172
      dx2y2   :     0.008328
      dxy     :     0.018144
      f0      :     0.000335  f :     0.006015
      f+1     :     0.000494
      f-1     :     0.000723
      f+2     :     0.000749
      f-2     :     0.002603
      f+3     :     0.000496
      f-3     :     0.000614
  1 N s       :     3.423343  s :     3.423343
      pz      :     1.283575  p :     3.851053
      px      :     1.292275
      py      :     1.275203
      dz2     :     0.005198  d :     0.050334
      dxz     :     0.013811
      dyz     :     0.012795
      dx2y2   :     0.006510
      dxy     :     0.012021
      f0      :     0.000120  f :     0.002210
      f+1     :     0.000169
      f-1     :     0.000202
      f+2     :     0.000220
      f-2     :     0.001158
      f+3     :     0.000165
      f-3     :     0.000175
  2 H s       :     0.827691  s :     0.827691
      pz      :     0.008249  p :     0.021681
      px      :     0.007672
      py      :     0.005760
  3 H s       :     0.827541  s :     0.827541
      pz      :     0.006900  p :     0.021663
      px      :     0.007384
      py      :     0.007379
  4 H s       :     0.831480  s :     0.831480
      pz      :     0.006724  p :     0.021565
      px      :     0.007337
      py      :     0.007504
  5 H s       :     0.674332  s :     0.674332
      pz      :     0.009846  p :     0.041819
      px      :     0.015137
      py      :     0.016836
  6 H s       :     0.656856  s :     0.656856
      pz      :     0.017139  p :     0.051371
      px      :     0.010877
      py      :     0.023355
  7 H s       :     0.660110  s :     0.660110
      pz      :     0.019396  p :     0.051079
      px      :     0.023226
      py      :     0.008457
  8 Pbs       :     3.824833  s :     3.824833
      pz      :     2.407780  p :     7.180186
      px      :     2.365163
      py      :     2.407243
      dz2     :     2.026235  d :    10.122671
      dxz     :     2.026956
      dyz     :     2.026153
      dx2y2   :     2.017273
      dxy     :     2.026055
      f0      :     0.021566  f :     0.098552
      f+1     :     0.013641
      f-1     :     0.013436
      f+2     :     0.012242
      f-2     :     0.001212
      f+3     :     0.017784
      f-3     :     0.018670
  9 Cls       :     5.942715  s :     5.942715
      pz      :     3.924832  p :    11.512336
      px      :     3.693968
      py      :     3.893536
      dz2     :     0.004292  d :     0.034571
      dxz     :     0.005955
      dyz     :     0.004316
      dx2y2   :     0.014003
      dxy     :     0.006005
      f0      :     0.000264  f :     0.002290
      f+1     :     0.000406
      f-1     :     0.000097
      f+2     :     0.000477
      f-2     :     0.000053
      f+3     :     0.000573
      f-3     :     0.000419
 10 Cls       :     5.942003  s :     5.942003
      pz      :     3.931357  p :    11.511995
      px      :     3.892540
      py      :     3.688098
      dz2     :     0.004766  d :     0.036084
      dxz     :     0.004410
      dyz     :     0.006194
      dx2y2   :     0.013409
      dxy     :     0.007306
      f0      :     0.000278  f :     0.002463
      f+1     :     0.000119
      f-1     :     0.000441
      f+2     :     0.000437
      f-2     :     0.000115
      f+3     :     0.000500
      f-3     :     0.000573
 11 Cls       :     5.946535  s :     5.946535
      pz      :     3.709389  p :    11.549712
      px      :     3.926841
      py      :     3.913481
      dz2     :     0.012910  d :     0.023895
      dxz     :     0.003932
      dyz     :     0.004108
      dx2y2   :     0.000827
      dxy     :     0.002117
      f0      :     0.000646  f :     0.001274
      f+1     :     0.000246
      f-1     :     0.000235
      f+2     :     0.000038
      f-2     :     0.000025
      f+3     :     0.000058
      f-3     :     0.000026


                     *******************************
                     * LOEWDIN POPULATION ANALYSIS *
                     *******************************

----------------------
LOEWDIN ATOMIC CHARGES
----------------------
   0 C :   -0.289648
   1 N :    0.046611
   2 H :    0.121748
   3 H :    0.121656
   4 H :    0.120152
   5 H :    0.155404
   6 H :    0.117658
   7 H :    0.121176
   8 Pb:   -0.411688
   9 Cl:    0.010004
  10 Cl:    0.020211
  11 Cl:   -0.133283

-------------------------------
LOEWDIN REDUCED ORBITAL CHARGES
-------------------------------
  0 C s       :     2.853168  s :     2.853168
      pz      :     1.035418  p :     3.088826
      px      :     1.043352
      py      :     1.010056
      dz2     :     0.029903  d :     0.310498
      dxz     :     0.081427
      dyz     :     0.083401
      dx2y2   :     0.034311
      dxy     :     0.081456
      f0      :     0.005229  f :     0.037156
      f+1     :     0.003956
      f-1     :     0.005782
      f+2     :     0.004481
      f-2     :     0.006916
      f+3     :     0.004877
      f-3     :     0.005915
  1 N s       :     3.008507  s :     3.008507
      pz      :     1.254050  p :     3.772334
      px      :     1.263068
      py      :     1.255217
      dz2     :     0.017035  d :     0.162780
      dxz     :     0.043423
      dyz     :     0.041879
      dx2y2   :     0.019568
      dxy     :     0.040875
      f0      :     0.001452  f :     0.009768
      f+1     :     0.001119
      f-1     :     0.001409
      f+2     :     0.001052
      f-2     :     0.001944
      f+3     :     0.001271
      f-3     :     0.001521
  2 H s       :     0.816309  s :     0.816309
      pz      :     0.022697  p :     0.061943
      px      :     0.021427
      py      :     0.017819
  3 H s       :     0.816419  s :     0.816419
      pz      :     0.019326  p :     0.061925
      px      :     0.022269
      py      :     0.020330
  4 H s       :     0.818172  s :     0.818172
      pz      :     0.020612  p :     0.061676
      px      :     0.020520
      py      :     0.020543
  5 H s       :     0.719063  s :     0.719063
      pz      :     0.032957  p :     0.125533
      px      :     0.044118
      py      :     0.048459
  6 H s       :     0.717102  s :     0.717102
      pz      :     0.053117  p :     0.165240
      px      :     0.036862
      py      :     0.075260
  7 H s       :     0.716237  s :     0.716237
      pz      :     0.060154  p :     0.162587
      px      :     0.074584
      py      :     0.027848
  8 Pbs       :     3.544963  s :     3.544963
      pz      :     2.602770  p :     7.823824
      px      :     2.585292
      py      :     2.635763
      dz2     :     2.194023  d :    10.712193
      dxz     :     2.107225
      dyz     :     2.099543
      dx2y2   :     2.192219
      dxy     :     2.119183
      f0      :     0.074912  f :     0.330707
      f+1     :     0.044044
      f-1     :     0.042994
      f+2     :     0.035455
      f-2     :     0.003212
      f+3     :     0.067331
      f-3     :     0.062759
  9 Cls       :     5.630375  s :     5.630375
      pz      :     3.829724  p :    11.279408
      px      :     3.669788
      py      :     3.779897
      dz2     :     0.009903  d :     0.074127
      dxz     :     0.010217
      dyz     :     0.009044
      dx2y2   :     0.035145
      dxy     :     0.009817
      f0      :     0.000552  f :     0.006086
      f+1     :     0.001186
      f-1     :     0.000137
      f+2     :     0.001152
      f-2     :     0.000057
      f+3     :     0.002000
      f-3     :     0.001002
 10 Cls       :     5.622835  s :     5.622835
      pz      :     3.833122  p :    11.272912
      px      :     3.779992
      py      :     3.659798
      dz2     :     0.010883  d :     0.077561
      dxz     :     0.009036
      dyz     :     0.010799
      dx2y2   :     0.035654
      dxy     :     0.011189
      f0      :     0.000571  f :     0.006482
      f+1     :     0.000161
      f-1     :     0.001305
      f+2     :     0.000967
      f-2     :     0.000250
      f+3     :     0.001101
      f-3     :     0.002128
 11 Cls       :     5.698642  s :     5.698642
      pz      :     3.678961  p :    11.386880
      px      :     3.860421
      py      :     3.847498
      dz2     :     0.029447  d :     0.044758
      dxz     :     0.004736
      dyz     :     0.005715
      dx2y2   :     0.001244
      dxy     :     0.003616
      f0      :     0.001907  f :     0.003003
      f+1     :     0.000397
      f-1     :     0.000432
      f+2     :     0.000051
      f-2     :     0.000030
      f+3     :     0.000136
      f-3     :     0.000049


                      *****************************
                      * MAYER POPULATION ANALYSIS *
                      *****************************

  NA   - Mulliken gross atomic population
  ZA   - Total nuclear charge
  QA   - Mulliken gross atomic charge
  VA   - Mayer's total valence
  BVA  - Mayer's bonded valence
  FA   - Mayer's free valence

  ATOM       NA         ZA         QA         VA         BVA        FA
  0 C      6.2538     6.0000    -0.2538     3.8544     3.8544     0.0000
  1 N      7.3269     7.0000    -0.3269     3.2636     3.2636     0.0000
  2 H      0.8494     1.0000     0.1506     0.9642     0.9642     0.0000
  3 H      0.8492     1.0000     0.1508     0.9635     0.9635     0.0000
  4 H      0.8530     1.0000     0.1470     0.9630     0.9630     0.0000
  5 H      0.7162     1.0000     0.2838     0.9764     0.9764     0.0000
  6 H      0.7082     1.0000     0.2918     0.9724     0.9724    -0.0000
  7 H      0.7112     1.0000     0.2888     0.9719     0.9719    -0.0000
  8 Pb    21.2262    22.0000     0.7738     2.0575     2.0575    -0.0000
  9 Cl    17.4919    17.0000    -0.4919     0.8600     0.8600    -0.0000
 10 Cl    17.4925    17.0000    -0.4925     0.8571     0.8571    -0.0000
 11 Cl    17.5214    17.0000    -0.5214     0.8137     0.8137     0.0000

  Mayer bond orders larger than 0.1
B(  0-C ,  1-N ) :   0.9085 B(  0-C ,  2-H ) :   0.9732 B(  0-C ,  3-H ) :   0.9728 
B(  0-C ,  4-H ) :   0.9731 B(  1-N ,  5-H ) :   0.8244 B(  1-N ,  6-H ) :   0.7881 
B(  1-N ,  7-H ) :   0.7970 B(  5-H , 11-Cl) :   0.1596 B(  6-H ,  9-Cl) :   0.1751 
B(  7-H , 10-Cl) :   0.1644 B(  8-Pb,  9-Cl) :   0.6767 B(  8-Pb, 10-Cl) :   0.6858 
B(  8-Pb, 11-Cl) :   0.6727 

-------
TIMINGS
-------

Total SCF time: 0 days 0 hours 6 min 12 sec 

Total time                  ....     372.438 sec
Sum of individual times     ....     350.367 sec  ( 94.1%)

Fock matrix formation       ....     344.233 sec  ( 92.4%)
  Coulomb formation         ....     266.591 sec  ( 77.4% of F)
  Split-RI-J                ....      23.145 sec  (  6.7% of F)
  Chain of spheres X        ....     264.407 sec  ( 76.8% of F)
  COS-X 1 center corr.      ....       0.000 sec  (  0.0% of F)
  XC integration            ....      77.652 sec  ( 22.6% of F)
    Basis function eval.    ....      36.925 sec  ( 47.6% of XC)
    Density eval.           ....      16.185 sec  ( 20.8% of XC)
    XC-Functional eval.     ....       3.872 sec  (  5.0% of XC)
    XC-Potential eval.      ....      19.333 sec  ( 24.9% of XC)
Diagonalization             ....       0.656 sec  (  0.2%)
Density matrix formation    ....       0.048 sec  (  0.0%)
Population analysis         ....       0.070 sec  (  0.0%)
Initial guess               ....       0.116 sec  (  0.0%)
Orbital Transformation      ....       0.000 sec  (  0.0%)
Orbital Orthonormalization  ....       0.113 sec  (  0.0%)
DIIS solution               ....       0.166 sec  (  0.0%)
SOSCF solution              ....       0.082 sec  (  0.0%)
Grid generation             ....       4.997 sec  (  1.3%)

------------------------------------------------------------------------------
                              ORCA MP2 CALCULATION
------------------------------------------------------------------------------


----------------------
RI-MP2 ENERGY+GRADIENT
----------------------
Dimension of the basis                    ...  259
Memory devoted to MP2                     ... 1000 MB   
Data format for buffers                   ... DOUBLE
Compression type for matrix containers    ... UNCOMPRESSED
Overall scaling of the MP2 energy         ...   2.700e-01 Eh
Calculating two index integrals           ... done (    0.013 sec)
Cholesky decomposition of the V-matrix    ... done
Cholesky decomposition of V**-1           ... done (    0.028 sec)

-----------------
RI-TRANSFORMATION (AUX index driven)
-----------------

Dimension of the orbital-basis         ... 259
Dimension of the aux-basis             ... 493
Transformation of internal MOs         ...    0-  45
Transformation of internal/external MOs...    0-  45 to   46- 258
Number Format for Storage              ... Double (8 Byte)
Integral mode                          ... Direct

First Phase: integral generation and transformation of MO indices
  Aux angular momentum 0               ... done (    0.534 sec)
  Aux angular momentum 1               ... done (    0.406 sec)
  Aux angular momentum 2               ... done (    0.502 sec)
  Aux angular momentum 3               ... done (    0.275 sec)
  Aux angular momentum 4               ... done (    0.239 sec)
Closing buffer VIJ ( 0.00 GB; CompressionRatio= 1.95)
Closing buffer VIA ( 0.04 GB; CompressionRatio= 1.00)
  Phase 1 completed in     2.059 sec
Second Phase: sorting and transformation of aux index

IJ-Transformation
Memory available                       ... 990 MB 
Max. # MO pairs treated in a batch     ... 46    
# of internal orbitals                 ... 46
# batches for internal orbitals        ... 1
Closing buffer IJV ( 0.00 GB; CompressionRatio= 1.00)
(ij|v) transformation done in     0.096 sec

IA-Transformation
Memory available                       ... 990 MB 
Max. # MO pairs treated in a batch     ... 46    
# of internal orbitals                 ... 46
# batches for internal orbitals        ... 1
Closing buffer IAV ( 0.04 GB; CompressionRatio= 1.00)
(ia|v) transformation done in     0.368 sec

  Phase 2 completed in     0.531 sec
RI-Integral transformation completed in     2.591 sec
Opening buffers                              ... done

Starting loop over batches of integrals:

Operator 0  - window                       ... (  0- 45)x( 46-258)
Operator 0  - Memory available             ...  1000 MB
Operator 0  - Memory needed per MO         ...   1.6 MB
Operator 0  - Number of orbitals per batch ... 46
Operator 0  - Number of batches            ... 1

OPERATOR  0   PASS   0:  MOs     0 ...   45
  Reading integrals       ... ok
  Internal MO   2
  Internal MO   5
  Internal MO   8
  Internal MO  11
  Internal MO  14
  Internal MO  17
  Internal MO  20
  Internal MO  23
  Internal MO  26
  Internal MO  29
  Internal MO  32
  Internal MO  35
  Internal MO  38
  Internal MO  41
  Internal MO  44
Closing buffer GIPV ( 0.04 GB; CompressionRatio= 1.00)
Time spent in pair loops =    45.180 sec

-----------------------------------------------
 RI-MP2 CORRELATION ENERGY:     -0.584492392 Eh
-----------------------------------------------


---------------------
MP2 DENSITY FORMATION
---------------------

Completing the external part of the density      ... done
Storing the unrelaxed density                    ... done

Calculating the xc-kernel                        ... done
Calculating G(D)                                 ... done
Completing the Lagrangian                        ... done
Solving the Z-vector equations                   ... 

------------------------------------------------------------------------------
                           ORCA CP-SCF CALCULATION
------------------------------------------------------------------------------

Input orbitals are from        ... PbMACl3_mp2_md2_10.orca.gbw
Input Perturbation             ... PbMACl3_mp2_md2_10.orca.pin.tmp
Wavefunction output            ... PbMACl3_mp2_md2_10.orca.pout.tmp
Perturbation mode              ... Real perturbation
Solver                         ... DIIS
   MaxDIIS                     ... 20
   Levelshift                  ...    3.000e-01 Eh
Max. number of iterations      ... 128
Convergence tolerance          ... 1.000e-08
Integral handling              ... Direct
COSX GridX                     ... 1
Number of perturbations        ... 1
Number of operators            ... 1
Orbital ranges used for CP-SCF:
 Operator 0:  Orbitals   0... 45  to  46...258
DFT calculation                         ... on
Exchange functional (SCF)               ... B88
Exchange functional (CP-SCF)            ... B88
   X-Alpha parameter    XAlpha (SCF)    ...  0.666667
   X-Alpha parameter    XAlpha (CP-SCF) ...  0.666667
   Becke's b parameter  XBeta (SCF)     ...  0.004200
   Becke's b parameter  XBeta (CP-SCF)  ...  0.004200
Correlation functional (SCF)            ... LYP
Correlation functional (CP-SCF)         ... LYP
 LDA part of GGA corr.  LDAOpt (SCF)    ... VWN-3
 LDA part of GGA corr.  LDAOpt (CP-SCF) ... VWN-3
Hybrid DFT                              ... on
   Exchange mixing (SCF)                ...  0.530
   Exchange mixing (CP-SCF)             ...  0.530
   GGA exch. scaling(SCF)               ...  0.470
   GGA exch. scaling (CP-SCF)           ...  0.470
   GGA corr. scaling (SCF)              ...  0.730
   GGA corr. scaling (CP-SCF)           ...  0.730
The RIJCOSX approximation is active
Variables per vector in CP-SCF ... 9798
Number of vectors sought       ... 1
Calculating the xc-kernel      ... done

Solving the CP-SCF equations by a DIIS algorithm

-----------------
CP-SCF ITERATIONS
-----------------
  Iteration   0: MaxR=  0.081392027
  Iteration   1: MaxR=  0.036680286
  Iteration   2: MaxR=  0.011195675
  Iteration   3: MaxR=  0.004239831
  Iteration   4: MaxR=  0.001460226
  Iteration   5: MaxR=  0.000475399
  Iteration   6: MaxR=  0.000176972
  Iteration   7: MaxR=  0.000054683
  Iteration   8: MaxR=  0.000021814
  Iteration   9: MaxR=  0.000006115
  Iteration  10: MaxR=  0.000001992
  Iteration  11: MaxR=  0.000000631
  Iteration  12: MaxR=  0.000000262
  Iteration  13: MaxR=  0.000000088
  Iteration  14: MaxR=  0.000000029
  Iteration  15: MaxR=  0.000000010
                              *** THE CP-SCF HAS CONVERGED *** 
done
Finalizing the relaxed density                   ... done
Transforming P to the AO basis                   ... done
Storing the relaxed density                      ... done

------------------------------------
ENERGY WEIGHTED DENSITY FINALIZATION
------------------------------------

Gathering the parts of the W-matrix              ... done
Forming the Z-density                            ... done
Transforming Z to the AO basis                   ... done
Calculating G(Z)                                 ... done
Finalizing the W-matrix                          ... done
Transforming W to the AO basis and storing       ... done
Entering the RIJONX and RIJCOSX sections
Starting the three-index derivative integrals:
Operator 0  - Memory available             ...  1000 MB
Operator 0  - Memory needed per MO         ...   1.0 MB
Operator 0  - Number of orbitals per batch ... 46
Operator 0  - Number of batches            ... 1

OPERATOR  0   PASS   0:  MOs     0 ...   45

----------------------------------
MP2 DERIVATIVE INTEGRAL GENERATION
----------------------------------


Input Correlated Electron Density   ... PbMACl3_mp2_md2_10.orca.pmp2re
Input Energy Weighted Density       ... PbMACl3_mp2_md2_10.orca.wmp2.tmp
Input SCF Electron Density          ... PbMACl3_mp2_md2_10.orca.scfp.tmp

One-Electron Terms    ...
  ECP gradient                                           ... One-Electron Terms done

-----------------------------------------------------------
MP2 COSX Grid Generation
-----------------------------------------------------------

General Integration Accuracy     IntAcc      ...  4.340
Radial Grid Type                 RadialGrid  ... Gauss-Chebyshev
Angular Grid (max. acc.)         AngularGrid ... Lebedev-302
Angular grid pruning method      GridPruning ... 3 (G Style)
Weight generation scheme         WeightScheme... Becke
Basis function cutoff            BFCut       ...    1.0000e-11
Integration weight cutoff        WCut        ...    1.0000e-14
Grids for H and He will be reduced by one unit

# of grid points (after initial pruning)     ...  57718 (   0.0 sec)
# of grid points (after weights+screening)   ...  54131 (   0.1 sec)
nearest neighbour list constructed           ...    0.0 sec
Grid point re-assignment to atoms done       ...    0.0 sec
Grid point division into batches done        ...    0.2 sec
Reduced shell lists constructed in    1.5 sec

Total number of grid points                  ...    54131
Total number of batches                      ...      852
Average number of points per batch           ...       63
Average number of grid points per atom       ...     4511
Average number of shells per batch           ...    58.63 (58.05%)
Average number of basis functions per batch  ...   157.06 (60.64%)
Average number of large shells per batch     ...    45.10 (76.93%)
Average number of large basis fcns per batch ...   117.95 (75.10%)
Maximum spatial batch extension              ...  31.21, 30.34, 31.14 au
Average spatial batch extension              ...   3.05,  3.04,  3.05 au

Overlap Fitting                  UseSFitting ... on
Two electron COSX terms .... 
Integration Timings:
Total Time                  =    90.9 sec
Basis fcn evaluation        =     0.7 sec
Density evaluation          =     1.1 sec
Integral evaluation         =    87.1 sec
K(P) evaluation             =     0.8 sec
                          .... COSX two electron terms done
COSX two-electron contribution to the gradient
     0:    -0.017199    -0.020823    -0.024479
     1:     0.046987     0.051638     0.045337
     2:     0.099130    -0.082719     0.106192
     3:    -0.104473     0.096137     0.087898
     4:     0.094238     0.097685    -0.096212
     5:    -0.108206    -0.110365     0.094801
     6:     0.099116    -0.101732    -0.098823
     7:    -0.105601     0.079271    -0.118822
     8:    -0.050456    -0.070568    -0.086431
     9:     0.065551    -0.002288     0.009194
    10:    -0.012797     0.064153     0.014176
    11:    -0.006607    -0.000100     0.066875
Exchange-correlation gradient    ... done
Dispersion correction            ... 
Entering the calculation of the dispersion correction...

Checking the input atom types...

Done
done

                *********************************************
                * UNRELAXED MP2 DENSITY POPULATION ANALYSIS *
                *********************************************

------------------------------------------------------------------------------
                           ORCA POPULATION ANALYSIS
------------------------------------------------------------------------------
Input electron density              ... PbMACl3_mp2_md2_10.orca.pmp2ur
BaseName (.gbw .S,...)              ... PbMACl3_mp2_md2_10.orca

                    ********************************
                    * MULLIKEN POPULATION ANALYSIS *
                    ********************************

-----------------------
MULLIKEN ATOMIC CHARGES
-----------------------
   0 C :   -0.258321
   1 N :   -0.326077
   2 H :    0.151668
   3 H :    0.151836
   4 H :    0.148032
   5 H :    0.282727
   6 H :    0.290658
   7 H :    0.287751
   8 Pb:    0.761585
   9 Cl:   -0.486638
  10 Cl:   -0.487304
  11 Cl:   -0.515917
Sum of atomic charges:   -0.0000000

--------------------------------
MULLIKEN REDUCED ORBITAL CHARGES
--------------------------------
  0 C s       :     3.269759  s :     3.269759
      pz      :     0.974751  p :     2.902456
      px      :     0.989808
      py      :     0.937897
      dz2     :     0.008930  d :     0.078948
      dxz     :     0.020357
      dyz     :     0.019661
      dx2y2   :     0.010339
      dxy     :     0.019661
      f0      :     0.000493  f :     0.007158
      f+1     :     0.000669
      f-1     :     0.000894
      f+2     :     0.000931
      f-2     :     0.002728
      f+3     :     0.000663
      f-3     :     0.000781
  1 N s       :     3.421242  s :     3.421242
      pz      :     1.279873  p :     3.839939
      px      :     1.288541
      py      :     1.271525
      dz2     :     0.007554  d :     0.061629
      dxz     :     0.015999
      dyz     :     0.014980
      dx2y2   :     0.008896
      dxy     :     0.014201
      f0      :     0.000267  f :     0.003267
      f+1     :     0.000322
      f-1     :     0.000357
      f+2     :     0.000378
      f-2     :     0.001302
      f+3     :     0.000315
      f-3     :     0.000326
  2 H s       :     0.825625  s :     0.825625
      pz      :     0.008580  p :     0.022706
      px      :     0.008008
      py      :     0.006119
  3 H s       :     0.825475  s :     0.825475
      pz      :     0.007241  p :     0.022689
      px      :     0.007728
      py      :     0.007720
  4 H s       :     0.829373  s :     0.829373
      pz      :     0.007076  p :     0.022595
      px      :     0.007676
      py      :     0.007843
  5 H s       :     0.674820  s :     0.674820
      pz      :     0.010063  p :     0.042452
      px      :     0.015343
      py      :     0.017046
  6 H s       :     0.657312  s :     0.657312
      pz      :     0.017366  p :     0.052031
      px      :     0.011098
      py      :     0.023567
  7 H s       :     0.660520  s :     0.660520
      pz      :     0.019583  p :     0.051729
      px      :     0.023431
      py      :     0.008716
  8 Pbs       :     3.809869  s :     3.809869
      pz      :     2.413756  p :     7.197690
      px      :     2.371424
      py      :     2.412511
      dz2     :     2.021163  d :    10.096605
      dxz     :     2.021617
      dyz     :     2.020853
      dx2y2   :     2.012287
      dxy     :     2.020685
      f0      :     0.026541  f :     0.134250
      f+1     :     0.018769
      f-1     :     0.018572
      f+2     :     0.017433
      f-2     :     0.006424
      f+3     :     0.022770
      f-3     :     0.023742
  9 Cls       :     5.938271  s :     5.938271
      pz      :     3.909932  p :    11.468743
      px      :     3.680337
      py      :     3.878474
      dz2     :     0.012233  d :     0.074439
      dxz     :     0.013958
      dyz     :     0.012394
      dx2y2   :     0.021783
      dxy     :     0.014071
      f0      :     0.000665  f :     0.005185
      f+1     :     0.000813
      f-1     :     0.000492
      f+2     :     0.000901
      f-2     :     0.000466
      f+3     :     0.000993
      f-3     :     0.000856
 10 Cls       :     5.937559  s :     5.937559
      pz      :     3.916369  p :    11.468297
      px      :     3.877430
      py      :     3.674499
      dz2     :     0.012743  d :     0.076072
      dxz     :     0.012477
      dyz     :     0.014260
      dx2y2   :     0.021217
      dxy     :     0.015376
      f0      :     0.000681  f :     0.005375
      f+1     :     0.000517
      f-1     :     0.000850
      f+2     :     0.000860
      f-2     :     0.000533
      f+3     :     0.000934
      f-3     :     0.000999
 11 Cls       :     5.942108  s :     5.942108
      pz      :     3.695450  p :    11.506294
      px      :     3.912138
      py      :     3.898705
      dz2     :     0.020623  d :     0.063440
      dxz     :     0.011869
      dyz     :     0.012068
      dx2y2   :     0.008783
      dxy     :     0.010099
      f0      :     0.001051  f :     0.004075
      f+1     :     0.000663
      f-1     :     0.000654
      f+2     :     0.000434
      f-2     :     0.000424
      f+3     :     0.000441
      f-3     :     0.000408


                     *******************************
                     * LOEWDIN POPULATION ANALYSIS *
                     *******************************

----------------------
LOEWDIN ATOMIC CHARGES
----------------------
   0 C :   -0.292706
   1 N :    0.045955
   2 H :    0.122473
   3 H :    0.122380
   4 H :    0.120886
   5 H :    0.154873
   6 H :    0.117346
   7 H :    0.120860
   8 Pb:   -0.415935
   9 Cl:    0.011971
  10 Cl:    0.022036
  11 Cl:   -0.130140

-------------------------------
LOEWDIN REDUCED ORBITAL CHARGES
-------------------------------
  0 C s       :     2.852582  s :     2.852582
      pz      :     1.033021  p :     3.081720
      px      :     1.040892
      py      :     1.007807
      dz2     :     0.031706  d :     0.319474
      dxz     :     0.083242
      dyz     :     0.085191
      dx2y2   :     0.036075
      dxy     :     0.083260
      f0      :     0.005459  f :     0.038930
      f+1     :     0.004173
      f-1     :     0.005992
      f+2     :     0.004693
      f-2     :     0.007382
      f+3     :     0.005107
      f-3     :     0.006124
  1 N s       :     3.007947  s :     3.007947
      pz      :     1.250084  p :     3.760253
      px      :     1.259033
      py      :     1.251135
      dz2     :     0.019118  d :     0.174697
      dxz     :     0.045988
      dyz     :     0.044448
      dx2y2   :     0.021687
      dxy     :     0.043456
      f0      :     0.001637  f :     0.011149
      f+1     :     0.001299
      f-1     :     0.001585
      f+2     :     0.001233
      f-2     :     0.002238
      f+3     :     0.001458
      f-3     :     0.001699
  2 H s       :     0.813712  s :     0.813712
      pz      :     0.023360  p :     0.063814
      px      :     0.022060
      py      :     0.018395
  3 H s       :     0.813823  s :     0.813823
      pz      :     0.019916  p :     0.063798
      px      :     0.022921
      py      :     0.020961
  4 H s       :     0.815559  s :     0.815559
      pz      :     0.021243  p :     0.063554
      px      :     0.021133
      py      :     0.021178
  5 H s       :     0.718170  s :     0.718170
      pz      :     0.033417  p :     0.126957
      px      :     0.044595
      py      :     0.048945
  6 H s       :     0.716284  s :     0.716284
      pz      :     0.053477  p :     0.166370
      px      :     0.037361
      py      :     0.075532
  7 H s       :     0.715394  s :     0.715394
      pz      :     0.060541  p :     0.163747
      px      :     0.074866
      py      :     0.028339
  8 Pbs       :     3.532509  s :     3.532509
      pz      :     2.606907  p :     7.834833
      px      :     2.589349
      py      :     2.638578
      dz2     :     2.188131  d :    10.682616
      dxz     :     2.101305
      dyz     :     2.093700
      dx2y2   :     2.186384
      dxy     :     2.113095
      f0      :     0.079711  f :     0.365977
      f+1     :     0.049147
      f-1     :     0.048096
      f+2     :     0.040580
      f-2     :     0.008492
      f+3     :     0.072230
      f-3     :     0.067721
  9 Cls       :     5.626490  s :     5.626490
      pz      :     3.815547  p :    11.238334
      px      :     3.656957
      py      :     3.765830
      dz2     :     0.017941  d :     0.114068
      dxz     :     0.018117
      dyz     :     0.017060
      dx2y2   :     0.043185
      dxy     :     0.017765
      f0      :     0.000965  f :     0.009137
      f+1     :     0.001630
      f-1     :     0.000536
      f+2     :     0.001594
      f-2     :     0.000476
      f+3     :     0.002477
      f-3     :     0.001459
 10 Cls       :     5.618979  s :     5.618979
      pz      :     3.818868  p :    11.231785
      px      :     3.765909
      py      :     3.647008
      dz2     :     0.018966  d :     0.117642
      dxz     :     0.017054
      dyz     :     0.018749
      dx2y2   :     0.043661
      dxy     :     0.019213
      f0      :     0.000988  f :     0.009559
      f+1     :     0.000564
      f-1     :     0.001752
      f+2     :     0.001409
      f-2     :     0.000676
      f+3     :     0.001569
      f-3     :     0.002602
 11 Cls       :     5.694544  s :     5.694544
      pz      :     3.665846  p :    11.345158
      px      :     3.846155
      py      :     3.833157
      dz2     :     0.037471  d :     0.084527
      dxz     :     0.012617
      dyz     :     0.013608
      dx2y2   :     0.009223
      dxy     :     0.011609
      f0      :     0.002377  f :     0.005911
      f+1     :     0.000829
      f-1     :     0.000865
      f+2     :     0.000452
      f-2     :     0.000432
      f+3     :     0.000523
      f-3     :     0.000433


                      *****************************
                      * MAYER POPULATION ANALYSIS *
                      *****************************

  NA   - Mulliken gross atomic population
  ZA   - Total nuclear charge
  QA   - Mulliken gross atomic charge
  VA   - Mayer's total valence
  BVA  - Mayer's bonded valence
  FA   - Mayer's free valence

  ATOM       NA         ZA         QA         VA         BVA        FA
  0 C      6.2583     6.0000    -0.2583     3.8999     3.7839     0.1160
  1 N      7.3261     7.0000    -0.3261     3.3408     3.1926     0.1482
  2 H      0.8483     1.0000     0.1517     0.9669     0.9482     0.0187
  3 H      0.8482     1.0000     0.1518     0.9663     0.9476     0.0187
  4 H      0.8520     1.0000     0.1480     0.9658     0.9471     0.0187
  5 H      0.7173     1.0000     0.2827     0.9790     0.9579     0.0211
  6 H      0.7093     1.0000     0.2907     0.9748     0.9543     0.0205
  7 H      0.7122     1.0000     0.2878     0.9743     0.9538     0.0205
  8 Pb    21.2384    22.0000     0.7616     2.3534     2.0005     0.3529
  9 Cl    17.4866    17.0000    -0.4866     1.0911     0.8354     0.2556
 10 Cl    17.4873    17.0000    -0.4873     1.0885     0.8327     0.2559
 11 Cl    17.5159    17.0000    -0.5159     1.0475     0.7903     0.2573

  Mayer bond orders larger than 0.1
B(  0-C ,  1-N ) :   0.8852 B(  0-C ,  2-H ) :   0.9579 B(  0-C ,  3-H ) :   0.9575 
B(  0-C ,  4-H ) :   0.9578 B(  1-N ,  5-H ) :   0.8090 B(  1-N ,  6-H ) :   0.7737 
B(  1-N ,  7-H ) :   0.7824 B(  5-H , 11-Cl) :   0.1568 B(  6-H ,  9-Cl) :   0.1722 
B(  7-H , 10-Cl) :   0.1617 B(  8-Pb,  9-Cl) :   0.6581 B(  8-Pb, 10-Cl) :   0.6670 
B(  8-Pb, 11-Cl) :   0.6540 


                *******************************************
                * RELAXED MP2 DENSITY POPULATION ANALYSIS *
                *******************************************

------------------------------------------------------------------------------
                           ORCA POPULATION ANALYSIS
------------------------------------------------------------------------------
Input electron density              ... PbMACl3_mp2_md2_10.orca.pmp2re
BaseName (.gbw .S,...)              ... PbMACl3_mp2_md2_10.orca

                    ********************************
                    * MULLIKEN POPULATION ANALYSIS *
                    ********************************

-----------------------
MULLIKEN ATOMIC CHARGES
-----------------------
   0 C :   -0.276778
   1 N :   -0.323004
   2 H :    0.155600
   3 H :    0.155758
   4 H :    0.152265
   5 H :    0.277209
   6 H :    0.283869
   7 H :    0.281130
   8 Pb:    0.710781
   9 Cl:   -0.462247
  10 Cl:   -0.462811
  11 Cl:   -0.491772
Sum of atomic charges:   -0.0000000

--------------------------------
MULLIKEN REDUCED ORBITAL CHARGES
--------------------------------
  0 C s       :     3.272979  s :     3.272979
      pz      :     0.981416  p :     2.921994
      px      :     0.995962
      py      :     0.944616
      dz2     :     0.009155  d :     0.074801
      dxz     :     0.018813
      dyz     :     0.018151
      dx2y2   :     0.010549
      dxy     :     0.018134
      f0      :     0.000476  f :     0.007004
      f+1     :     0.000661
      f-1     :     0.000881
      f+2     :     0.000923
      f-2     :     0.002649
      f+3     :     0.000649
      f-3     :     0.000766
  1 N s       :     3.422795  s :     3.422795
      pz      :     1.278223  p :     3.836332
      px      :     1.287644
      py      :     1.270464
      dz2     :     0.007730  d :     0.060662
      dxz     :     0.015607
      dyz     :     0.014514
      dx2y2   :     0.009154
      dxy     :     0.013656
      f0      :     0.000264  f :     0.003216
      f+1     :     0.000322
      f-1     :     0.000358
      f+2     :     0.000379
      f-2     :     0.001255
      f+3     :     0.000311
      f-3     :     0.000327
  2 H s       :     0.822052  s :     0.822052
      pz      :     0.008409  p :     0.022348
      px      :     0.007872
      py      :     0.006067
  3 H s       :     0.821911  s :     0.821911
      pz      :     0.007149  p :     0.022331
      px      :     0.007585
      py      :     0.007597
  4 H s       :     0.825496  s :     0.825496
      pz      :     0.006970  p :     0.022239
      px      :     0.007558
      py      :     0.007711
  5 H s       :     0.680800  s :     0.680800
      pz      :     0.009970  p :     0.041991
      px      :     0.015174
      py      :     0.016846
  6 H s       :     0.664599  s :     0.664599
      pz      :     0.017199  p :     0.051532
      px      :     0.011029
      py      :     0.023305
  7 H s       :     0.667633  s :     0.667633
      pz      :     0.019334  p :     0.051238
      px      :     0.023167
      py      :     0.008736
  8 Pbs       :     3.836349  s :     3.836349
      pz      :     2.421814  p :     7.221771
      px      :     2.382331
      py      :     2.417627
      dz2     :     2.019364  d :    10.098081
      dxz     :     2.023151
      dyz     :     2.022299
      dx2y2   :     2.011050
      dxy     :     2.022217
      f0      :     0.026069  f :     0.133018
      f+1     :     0.018632
      f-1     :     0.018439
      f+2     :     0.017429
      f-2     :     0.006418
      f+3     :     0.022524
      f-3     :     0.023506
  9 Cls       :     5.937676  s :     5.937676
      pz      :     3.903241  p :    11.443971
      px      :     3.672222
      py      :     3.868508
      dz2     :     0.012226  d :     0.075388
      dxz     :     0.014295
      dyz     :     0.012705
      dx2y2   :     0.021815
      dxy     :     0.014347
      f0      :     0.000671  f :     0.005212
      f+1     :     0.000811
      f-1     :     0.000495
      f+2     :     0.000912
      f-2     :     0.000468
      f+3     :     0.000988
      f-3     :     0.000866
 10 Cls       :     5.936910  s :     5.936910
      pz      :     3.909983  p :    11.443369
      px      :     3.867760
      py      :     3.665625
      dz2     :     0.012764  d :     0.077131
      dxz     :     0.012772
      dyz     :     0.014664
      dx2y2   :     0.021398
      dxy     :     0.015534
      f0      :     0.000688  f :     0.005401
      f+1     :     0.000519
      f-1     :     0.000848
      f+2     :     0.000869
      f-2     :     0.000539
      f+3     :     0.000940
      f-3     :     0.000998
 11 Cls       :     5.942224  s :     5.942224
      pz      :     3.685992  p :    11.481644
      px      :     3.905210
      py      :     3.890443
      dz2     :     0.020373  d :     0.063810
      dxz     :     0.012032
      dyz     :     0.012298
      dx2y2   :     0.008871
      dxy     :     0.010235
      f0      :     0.001045  f :     0.004094
      f+1     :     0.000671
      f-1     :     0.000662
      f+2     :     0.000436
      f-2     :     0.000425
      f+3     :     0.000445
      f-3     :     0.000410


                     *******************************
                     * LOEWDIN POPULATION ANALYSIS *
                     *******************************

----------------------
LOEWDIN ATOMIC CHARGES
----------------------
   0 C :   -0.302375
   1 N :    0.041971
   2 H :    0.124566
   3 H :    0.124474
   4 H :    0.123100
   5 H :    0.153328
   6 H :    0.115561
   7 H :    0.119078
   8 Pb:   -0.430715
   9 Cl:    0.020299
  10 Cl:    0.030171
  11 Cl:   -0.119457

-------------------------------
LOEWDIN REDUCED ORBITAL CHARGES
-------------------------------
  0 C s       :     2.853934  s :     2.853934
      pz      :     1.037346  p :     3.094625
      px      :     1.045134
      py      :     1.012145
      dz2     :     0.031935  d :     0.315112
      dxz     :     0.081694
      dyz     :     0.083587
      dx2y2   :     0.036274
      dxy     :     0.081622
      f0      :     0.005446  f :     0.038705
      f+1     :     0.004150
      f-1     :     0.005973
      f+2     :     0.004651
      f-2     :     0.007296
      f+3     :     0.005082
      f-3     :     0.006107
  1 N s       :     3.010299  s :     3.010299
      pz      :     1.250673  p :     3.761283
      px      :     1.259395
      py      :     1.251214
      dz2     :     0.019394  d :     0.175206
      dxz     :     0.046012
      dyz     :     0.044382
      dx2y2   :     0.022047
      dxy     :     0.043372
      f0      :     0.001655  f :     0.011241
      f+1     :     0.001307
      f-1     :     0.001595
      f+2     :     0.001235
      f-2     :     0.002266
      f+3     :     0.001470
      f-3     :     0.001712
  2 H s       :     0.811496  s :     0.811496
      pz      :     0.023366  p :     0.063938
      px      :     0.022092
      py      :     0.018481
  3 H s       :     0.811604  s :     0.811604
      pz      :     0.019978  p :     0.063923
      px      :     0.022934
      py      :     0.021011
  4 H s       :     0.813223  s :     0.813223
      pz      :     0.021290  p :     0.063678
      px      :     0.021172
      py      :     0.021215
  5 H s       :     0.719724  s :     0.719724
      pz      :     0.033451  p :     0.126947
      px      :     0.044581
      py      :     0.048915
  6 H s       :     0.718389  s :     0.718389
      pz      :     0.053338  p :     0.166050
      px      :     0.037427
      py      :     0.075285
  7 H s       :     0.717484  s :     0.717484
      pz      :     0.060363  p :     0.163439
      px      :     0.074643
      py      :     0.028433
  8 Pbs       :     3.550454  s :     3.550454
      pz      :     2.609118  p :     7.841457
      px      :     2.594186
      py      :     2.638153
      dz2     :     2.183586  d :    10.674310
      dxz     :     2.101623
      dyz     :     2.093875
      dx2y2   :     2.182380
      dxy     :     2.112847
      f0      :     0.079111  f :     0.364494
      f+1     :     0.048987
      f-1     :     0.047946
      f+2     :     0.040428
      f-2     :     0.008472
      f+3     :     0.072114
      f-3     :     0.067437
  9 Cls       :     5.630178  s :     5.630178
      pz      :     3.810818  p :    11.223249
      px      :     3.653137
      py      :     3.759293
      dz2     :     0.018319  d :     0.116928
      dxz     :     0.018592
      dyz     :     0.017371
      dx2y2   :     0.044457
      dxy     :     0.018188
      f0      :     0.000978  f :     0.009346
      f+1     :     0.001679
      f-1     :     0.000540
      f+2     :     0.001619
      f-2     :     0.000479
      f+3     :     0.002563
      f-3     :     0.001488
 10 Cls       :     5.622701  s :     5.622701
      pz      :     3.814279  p :    11.216686
      px      :     3.759582
      py      :     3.642825
      dz2     :     0.019393  d :     0.120664
      dxz     :     0.017331
      dyz     :     0.019271
      dx2y2   :     0.044986
      dxy     :     0.019683
      f0      :     0.001001  f :     0.009778
      f+1     :     0.000570
      f-1     :     0.001804
      f+2     :     0.001427
      f-2     :     0.000684
      f+3     :     0.001612
      f-3     :     0.002680
 11 Cls       :     5.698010  s :     5.698010
      pz      :     3.660451  p :    11.329208
      px      :     3.841312
      py      :     3.827445
      dz2     :     0.038422  d :     0.086195
      dxz     :     0.012848
      dyz     :     0.013857
      dx2y2   :     0.009297
      dxy     :     0.011771
      f0      :     0.002467  f :     0.006044
      f+1     :     0.000848
      f-1     :     0.000880
      f+2     :     0.000453
      f-2     :     0.000434
      f+3     :     0.000528
      f-3     :     0.000434


                      *****************************
                      * MAYER POPULATION ANALYSIS *
                      *****************************

  NA   - Mulliken gross atomic population
  ZA   - Total nuclear charge
  QA   - Mulliken gross atomic charge
  VA   - Mayer's total valence
  BVA  - Mayer's bonded valence
  FA   - Mayer's free valence

  ATOM       NA         ZA         QA         VA         BVA        FA
  0 C      6.2768     6.0000    -0.2768     3.9009     3.7853     0.1157
  1 N      7.3230     7.0000    -0.3230     3.3493     3.2015     0.1477
  2 H      0.8444     1.0000     0.1556     0.9658     0.9472     0.0186
  3 H      0.8442     1.0000     0.1558     0.9652     0.9466     0.0186
  4 H      0.8477     1.0000     0.1523     0.9646     0.9460     0.0186
  5 H      0.7228     1.0000     0.2772     0.9844     0.9634     0.0210
  6 H      0.7161     1.0000     0.2839     0.9805     0.9601     0.0204
  7 H      0.7189     1.0000     0.2811     0.9800     0.9596     0.0204
  8 Pb    21.2892    22.0000     0.7108     2.4295     2.0817     0.3478
  9 Cl    17.4622    17.0000    -0.4622     1.1362     0.8817     0.2545
 10 Cl    17.4628    17.0000    -0.4628     1.1342     0.8795     0.2547
 11 Cl    17.4918    17.0000    -0.4918     1.0911     0.8351     0.2560

  Mayer bond orders larger than 0.1
B(  0-C ,  1-N ) :   0.8926 B(  0-C ,  2-H ) :   0.9549 B(  0-C ,  3-H ) :   0.9545 
B(  0-C ,  4-H ) :   0.9551 B(  1-N ,  5-H ) :   0.8046 B(  1-N ,  6-H ) :   0.7690 
B(  1-N ,  7-H ) :   0.7778 B(  5-H , 11-Cl) :   0.1670 B(  6-H ,  9-Cl) :   0.1820 
B(  7-H , 10-Cl) :   0.1713 B(  8-Pb,  9-Cl) :   0.6834 B(  8-Pb, 10-Cl) :   0.6924 
B(  8-Pb, 11-Cl) :   0.6805 


-------
TIMINGS
-------

Total time                :  482.820 sec
Integral trafo            :    2.602 sec (  0.5%)
I/O of integrals          :    0.147 sec (  0.0%)
K(i,j) Operators          :    6.099 sec (  1.3%)
T(i,j) pair energies      :    1.167 sec (  0.2%)
V-calculation             :    0.013 sec (  0.0%)
V**(-1/2)                 :    0.028 sec (  0.0%)
Gamma(ia|P)               :    5.445 sec (  1.1%)
Gamma-Trafo               :    0.747 sec (  0.2%)
D(virtual)                :    2.403 sec (  0.5%)
D(internal)               :    4.214 sec (  0.9%)
W(virtual)                :    4.829 sec (  1.0%)
W(internal)               :   14.222 sec (  2.9%)
L(virtual)                :    5.432 sec (  1.1%)
L(internal)               :    0.232 sec (  0.0%)
G(D)                      :   14.041 sec (  2.9%)
G(Z)                      :   14.509 sec (  3.0%)
Z-Vector Solution         :  294.232 sec ( 60.9%)
Z-Vector Solution         :  294.232 sec ( 60.9%)
3-Index Derivative 
+ Separable RIJ part      :    4.296 sec (  0.9%)
2-Index Derivative 
+ Separable RIJ part      :    0.028 sec (  0.0%)
Separable Gradient (COSX) :  106.466 sec ( 22.1%)


---------------------------------------
MP2 TOTAL ENERGY:    -1669.557623919 Eh
---------------------------------------

The final MP2 gradient
  0:   0.00204571   0.00313270  -0.00077758
  1:  -0.01565653  -0.02051143  -0.02132544
  2:   0.00203489  -0.00299843   0.00221745
  3:  -0.00336769   0.00183892   0.00177601
  4:   0.00233535   0.00250448  -0.00261974
  5:  -0.00668547  -0.00613896   0.00221306
  6:   0.00065709  -0.00795128  -0.01035468
  7:  -0.00845155  -0.00085618  -0.01146412
  8:   0.07078464   0.09526128   0.04836951
  9:  -0.08942400   0.01879245   0.01417333
 10:   0.03988840  -0.08923972   0.02153848
 11:   0.00548240   0.00650776  -0.04403352

-----------------------------------
NORM OF THE MP2 GRADIENT:  0.196614
-----------------------------------

Entering the calculation of the dispersion correction...

Checking the input atom types...

Done


-------------------------------------------------------------------------------
                          DFT DISPERSION CORRECTION                            
                                                                               
                                DFTD3 V2.1  Rev 6                               
                          USING Becke-Johnson damping                          
-------------------------------------------------------------------------------
The B2PLYP functional is recognized
Active option DFTDOPT                   ...         4   

molecular C6(AA) [au] = 4860.408097 


            DFT-D V3
 parameters
 s6 scaling factor         :     0.6400 
 a1 scaling factor         :     0.3065 
 s8 scaling factor         :     0.9147 
 a2 scaling factor         :     5.0570 
 ad hoc parameters k1-k3   :    16.0000     1.3333    -4.0000 

 Edisp/kcal,au: -9.633696102575  -0.015352270321 
 E6   /kcal   :  -4.398637117 
 E8   /kcal   :  -5.235058985 
 % E8         :  54.341126495 

-------------------------   ----------------
Dispersion correction           -0.015352270
-------------------------   ----------------


-------------------------   --------------------
FINAL SINGLE POINT ENERGY     -1669.572976189526
-------------------------   --------------------


                            ***************************************
                            *     ORCA property calculations      *
                            ***************************************


  WARNING: The energy has been calculated at the MP2 level but the densities
           used in the property calculations are still SCF densities
           MP2 response densities have not been calculated 
           use %mp2 Density relaxed end
           or  %mp2 Density unrelaxed end

                                    ---------------------
                                    Active property flags
                                    ---------------------
   (+) Dipole Moment


------------------------------------------------------------------------------
                       ORCA ELECTRIC PROPERTIES CALCULATION
------------------------------------------------------------------------------

Dipole Moment Calculation                       ... on
Quadrupole Moment Calculation                   ... off
Polarizability Calculation                      ... off
GBWName                                         ... PbMACl3_mp2_md2_10.orca.gbw
Electron density file                           ... PbMACl3_mp2_md2_10.orca.scfp.tmp

-------------
DIPOLE MOMENT
-------------
                                X             Y             Z
Electronic contribution:    -66.11198     -85.46026     -80.16535
Nuclear contribution   :     67.33676      86.97095      80.50018
                        -----------------------------------------
Total Dipole Moment    :      1.22478       1.51069       0.33483
                        -----------------------------------------
Magnitude (a.u.)       :      1.97342
Magnitude (Debye)      :      5.01603


                         *** MP2 UNRELAXED DENSITY ***

------------------------------------------------------------------------------
                       ORCA ELECTRIC PROPERTIES CALCULATION
------------------------------------------------------------------------------

Dipole Moment Calculation                       ... on
Quadrupole Moment Calculation                   ... off
Polarizability Calculation                      ... off
GBWName                                         ... PbMACl3_mp2_md2_10.orca.gbw
Electron density file                           ... PbMACl3_mp2_md2_10.orca.pmp2ur

-------------
DIPOLE MOMENT
-------------
                                X             Y             Z
Electronic contribution:    -66.11389     -85.46231     -80.15871
Nuclear contribution   :     67.33676      86.97095      80.50018
                        -----------------------------------------
Total Dipole Moment    :      1.22287       1.50864       0.34147
                        -----------------------------------------
Magnitude (a.u.)       :      1.97181
Magnitude (Debye)      :      5.01193


                           *** MP2 RELAXED DENSITY ***

------------------------------------------------------------------------------
                       ORCA ELECTRIC PROPERTIES CALCULATION
------------------------------------------------------------------------------

Dipole Moment Calculation                       ... on
Quadrupole Moment Calculation                   ... off
Polarizability Calculation                      ... off
GBWName                                         ... PbMACl3_mp2_md2_10.orca.gbw
Electron density file                           ... PbMACl3_mp2_md2_10.orca.pmp2re

-------------
DIPOLE MOMENT
-------------
                                X             Y             Z
Electronic contribution:    -66.15880     -85.51894     -80.18198
Nuclear contribution   :     67.33676      86.97095      80.50018
                        -----------------------------------------
Total Dipole Moment    :      1.17796       1.45201       0.31820
                        -----------------------------------------
Magnitude (a.u.)       :      1.89662
Magnitude (Debye)      :      4.82082


Timings for individual modules:

Sum of individual times         ...      856.173 sec (=  14.270 min)
GTO integral calculation        ...        0.566 sec (=   0.009 min)   0.1 %
SCF iterations                  ...      372.601 sec (=   6.210 min)  43.5 %
MP2 module                      ...      483.006 sec (=   8.050 min)  56.4 %
                             ****ORCA TERMINATED NORMALLY****
TOTAL RUN TIME: 0 days 0 hours 14 minutes 16 seconds 689 msec
