
                                 *****************
                                 * O   R   C   A *
                                 *****************

           --- An Ab Initio, DFT and Semiempirical electronic structure package ---

                  #######################################################
                  #                        -***-                        #
                  #  Department of molecular theory and spectroscopy    #
                  #              Directorship: Frank Neese              #
                  # Max Planck Institute for Chemical Energy Conversion #
                  #                  D-45470 Muelheim/Ruhr              #
                  #                       Germany                       #
                  #                                                     #
                  #                  All rights reserved                #
                  #                        -***-                        #
                  #######################################################


                         Program Version 3.0.3 - RELEASE   -


 With contributions from (in alphabetic order):
   Ute Becker             : Parallelization
   Dmytro Bykov           : SCF Hessian
   Dmitry Ganyushin       : Spin-Orbit,Spin-Spin,Magnetic field MRCI
   Andreas Hansen         : Spin unrestricted coupled pair/coupled cluster methods
   Dimitrios Liakos       : Extrapolation schemes; parallel MDCI
   Robert Izsak           : Overlap fitted RIJCOSX, COSX-SCS-MP3
   Christian Kollmar      : KDIIS, OOCD, Brueckner-CCSD(T), CCSD density
   Simone Kossmann        : Meta GGA functionals, TD-DFT gradient, OOMP2, MP2 Hessian
   Taras Petrenko         : DFT Hessian,TD-DFT gradient, ASA and ECA modules, normal mode analysis, Resonance Raman, ABS, FL, XAS/XES, NRVS
   Christoph Reimann      : Effective Core Potentials
   Michael Roemelt        : Restricted open shell CIS
   Christoph Riplinger    : Improved optimizer, TS searches, QM/MM, DLPNO-CCSD
   Barbara Sandhoefer     : DKH picture change effects
   Igor Schapiro          : Molecular dynamics
   Kantharuban Sivalingam : CASSCF convergence, NEVPT2
   Boris Wezisla          : Elementary symmetry handling
   Frank Wennmohs         : Technical directorship


 We gratefully acknowledge several colleagues who have allowed us to
 interface, adapt or use parts of their codes:
   Stefan Grimme, W. Hujo, H. Kruse, T. Risthaus : VdW corrections, initial TS optimization,
                                                   DFT functionals, gCP
   Ed Valeev                                     : LibInt (2-el integral package), F12 methods
   Garnet Chan, S. Sharma, R. Olivares           : DMRG
   Ulf Ekstrom                                   : XCFun DFT Library
   Mihaly Kallay                                 : mrcc  (arbitrary order and MRCC methods)
   Andreas Klamt, Michael Diedenhofen            : otool_cosmo (COSMO solvation model)
   Frank Weinhold                                : gennbo (NPA and NBO analysis)
   Christopher J. Cramer and Donald G. Truhlar   : smd solvation model


 Your calculation uses the libint2 library for the computation of 2-el integrals
 For citations please refer to: http://libint.valeyev.net

 This ORCA versions uses:
   CBLAS   interface :  Fast vector & matrix operations
   LAPACKE interface :  Fast linear algebra routines
   SCALAPACK package :  Parallel linear algebra routines


Your calculation utilizes the basis: Ahlrichs-TZV
Cite in your paper:
H - Kr: A. Schaefer, H. Horn and R. Ahlrichs, J. Chem. Phys. 97, 2571 (1992).

The def2-TZV basis will be loaded
Cite in your paper:
 	F. Weigend, R. Ahlrichs, Phys. Chem. Chem. Phys. 2005, 7, 3297.

Your calculation utilizes the atom-pairwise dispersion correction
with the Becke-Johnson damping scheme (D3BJ)
Cite in your paper:
S.Grimme, S.Ehrlich, L.Goerigk, J Comput Chem, (2011), 32, 1456–1465 
S.Grimme, J.Antony, S.Ehrlich and H.Krieg, J.Chem.Phys., 132, (2010), 154104 
   

================================================================================
                                        WARNINGS
                       Please study these warnings very carefully!
================================================================================

WARNING: The RI method has been chosen with no auxiliary basis (AUX or GTOAUX in BASIS block)
        Standard TZV/J expansion basis used (GTOAUX=TZV_J)

Now building the actual basis set
cite the ECPs for Pb [SD(60,MDF)] as follows:
  B. Metz, H. Stoll, M. Dolg, J. Chem. Phys. 113, 2563 (2000).

ECP parameters for Pb [SD(60,MDF)] have been obtained from:
  pseudopotential library of the Stuttgart/Cologne group
  http://www.theochem.uni-stuttgart.de/pseudopotentials/

cite the ECP basis sets for Pb [DEF2-TZVP] as follows:
  F. Weigend, R. Ahlrichs; Phys. Chem. Chem. Phys. 7, 3297(2005).

ECP basis sets for Pb [DEF2-TZVP] have been obtained from:
  Turbomole basis set library
  ftp://ftp.chemie.uni-karlsruhe.de/pub/basen/



INFO   : the flag for use of LIBINT has been found!

================================================================================
                                       INPUT FILE
================================================================================
NAME = PbMACl3_mp2_md_14.orca
|  1> ! RIJCOSX RI-B2PLYP D3BJ def2-TZVP ECP{def2-TZVP} TIGHTSCF Grid5 FinalGrid6 SlowConv MORead
|  2> %method
|  3>  RunTyp Gradient
|  4>  end
|  5> %maxcore 1000
|  6> %moinp "previous.gbw"
|  7> *xyz 0 1
|  8> C -3.353160 0.471060 -0.715749 
|  9> N -2.136600 1.103760 -1.408060 
| 10> H -2.181230 2.107870 -1.469810 
| 11> H -2.157320 0.755496 -2.351200 
| 12> H -1.248910 0.864355 -1.035650 
| 13> H -4.280310 0.655423 -1.272620 
| 14> H -3.475570 0.863421 0.245545 
| 15> H -3.219710 -0.558252 -0.356821 
| 16> Pb -2.907190 -2.637050 -2.273560 
| 17> Cl -1.410560 -4.452810 -3.023820 
| 18> Cl -2.433910 -0.500496 -3.321160 
| 19> Cl -4.023460 -2.748220 -0.061459 
| 20> *
| 21> 
| 22>                          ****END OF INPUT****
================================================================================

                     *******************************
                     * Energy+Gradient Calculation *
                     *******************************

---------------------------------
CARTESIAN COORDINATES (ANGSTROEM)
---------------------------------
  C     -3.353160    0.471060   -0.715749
  N     -2.136600    1.103760   -1.408060
  H     -2.181230    2.107870   -1.469810
  H     -2.157320    0.755496   -2.351200
  H     -1.248910    0.864355   -1.035650
  H     -4.280310    0.655423   -1.272620
  H     -3.475570    0.863421    0.245545
  H     -3.219710   -0.558252   -0.356821
  Pb    -2.907190   -2.637050   -2.273560
  Cl    -1.410560   -4.452810   -3.023820
  Cl    -2.433910   -0.500496   -3.321160
  Cl    -4.023460   -2.748220   -0.061459

----------------------------
CARTESIAN COORDINATES (A.U.)
----------------------------
  NO LB      ZA    FRAG    MASS        X           Y           Z
   0 C     6.0000    0    12.011         -6.336554083219384          0.890174392644945         -1.352569590628002
   1 N     7.0000    0    14.007         -4.037588857736147          2.085804117576921         -2.660847780129158
   2 H     1.0000    0     1.008         -4.121927335093051          3.983297025908589         -2.777538368898795
   3 H     1.0000    0     1.008         -4.076743983230995          1.427680535272970         -4.443124086075647
   4 H     1.0000    0     1.008         -2.360097865915590          1.633394232485504         -1.957094870595544
   5 H     1.0000    0     1.008         -8.088613668284474          1.238569971873068         -2.404903272550864
   6 H     1.0000    0     1.008         -6.567875459272685          1.631629228276421          0.464012803553694
   7 H     1.0000    0     1.008         -6.084370130647593         -1.054943393713807         -0.674293968831915
   8 Pb   22.0000*   0   207.200  -5.493792919274523  -4.983302301457036  -4.296405749038001
   9 Cl   17.0000    0    35.453         -2.665572095463961         -8.414591426385890         -5.714191678273759
  10 Cl   17.0000    0    35.453         -4.599423334612274         -0.945800371123051         -6.276082846933904
  11 Cl   17.0000    0    35.453         -7.603237510786800         -5.193383155765062         -0.116140678464666
* core charge reduced due to ECP

--------------------------------
INTERNAL COORDINATES (ANGSTROEM)
--------------------------------
 C      0   0   0   0.000000     0.000     0.000
 N      1   0   0   1.536106     0.000     0.000
 H      2   1   0   1.006996   113.781     0.000
 H      2   1   3   1.005599   105.292   243.544
 H      2   1   3   0.991966   116.111   125.813
 H      1   2   3   1.097134   111.796    62.991
 H      1   2   3   1.045475   110.644   302.904
 H      1   2   3   1.098236   115.919   197.782
 Pb     8   1   2   2.844813   118.556   292.210
 Cl     9   8   1   2.469772   143.947   122.394
 Cl     4   2   1   1.610851   146.962   320.682
 Cl     8   1   2   2.351428   150.739   221.433

---------------------------
INTERNAL COORDINATES (A.U.)
---------------------------
 C      0   0   0   0.000000     0.000     0.000
 N      1   0   0   2.902820     0.000     0.000
 H      2   1   0   1.902947   113.781     0.000
 H      2   1   3   1.900308   105.292   243.544
 H      2   1   3   1.874545   116.111   125.813
 H      1   2   3   2.073282   111.796    62.991
 H      1   2   3   1.975661   110.644   302.904
 H      1   2   3   2.075364   115.919   197.782
 Pb     8   1   2   5.375917   118.556   292.210
 Cl     9   8   1   4.667193   143.947   122.394
 Cl     4   2   1   3.044067   146.962   320.682
 Cl     8   1   2   4.443555   150.739   221.433

---------------------
BASIS SET INFORMATION
---------------------
There are 5 groups of distinct atoms

 Group   1 Type C   : 11s6p2d1f contracted to 5s3p2d1f pattern {62111/411/11/1}
 Group   2 Type N   : 11s6p2d1f contracted to 5s3p2d1f pattern {62111/411/11/1}
 Group   3 Type H   : 5s1p contracted to 3s1p pattern {311/1}
 Group   4 Type Pb  : 10s9p8d2f contracted to 6s5p3d2f pattern {421111/33111/611/11}
 Group   5 Type Cl  : 14s9p3d1f contracted to 5s5p2d1f pattern {73211/51111/21/1}

Atom   0C    basis set group =>   1
Atom   1N    basis set group =>   2
Atom   2H    basis set group =>   3
Atom   3H    basis set group =>   3
Atom   4H    basis set group =>   3
Atom   5H    basis set group =>   3
Atom   6H    basis set group =>   3
Atom   7H    basis set group =>   3
Atom   8Pb   basis set group =>   4
Atom   9Cl   basis set group =>   5
Atom  10Cl   basis set group =>   5
Atom  11Cl   basis set group =>   5
-------------------------------
AUXILIARY BASIS SET INFORMATION
-------------------------------
There are 5 groups of distinct atoms

 Group   1 Type C   : 12s5p4d2f1g contracted to 6s4p3d1f1g pattern {711111/2111/211/2/1}
 Group   2 Type N   : 12s5p4d2f1g contracted to 6s4p3d1f1g pattern {711111/2111/211/2/1}
 Group   3 Type H   : 5s2p1d contracted to 3s1p1d pattern {311/2/1}
 Group   4 Type Pb  : 31s12p8d6f3g contracted to 31s12p8d6f3g pattern {1111111111111111111111111111111/111111111111/11111111/111111/111}
 Group   5 Type Cl  : 14s5p5d2f1g contracted to 8s4p3d1f1g pattern {71111111/2111/311/2/1}

Atom   0C    basis set group =>   1
Atom   1N    basis set group =>   2
Atom   2H    basis set group =>   3
Atom   3H    basis set group =>   3
Atom   4H    basis set group =>   3
Atom   5H    basis set group =>   3
Atom   6H    basis set group =>   3
Atom   7H    basis set group =>   3
Atom   8Pb   basis set group =>   4
Atom   9Cl   basis set group =>   5
Atom  10Cl   basis set group =>   5
Atom  11Cl   basis set group =>   5

-------------------------
ECP PARAMETER INFORMATION
-------------------------

 Group 1, Type Pb ECP SD(60,MDF) (replacing 60 core electrons, lmax=5)

Atom   8Pb   ECP group =>   1


------------------------------------------------------------------------------
                           ORCA GTO INTEGRAL CALCULATION
                           -- RI-GTO INTEGRALS CHOSEN --
------------------------------------------------------------------------------

                         BASIS SET STATISTICS AND STARTUP INFO

Gaussian basis set:
 # of primitive gaussian shells          ...  186
 # of primitive gaussian functions       ...  420
 # of contracted shells                  ...  101
 # of contracted basis functions         ...  259
 Highest angular momentum                ...    3
 Maximum contraction depth               ...    7
Auxiliary gaussian basis set:
 # of primitive gaussian shells          ...  237
 # of primitive gaussian functions       ...  643
 # of contracted shells                  ...  171
 # of contracted aux-basis functions     ...  493
 Highest angular momentum                ...    4
 Maximum contraction depth               ...    7
Ratio of auxiliary to basis functions    ...  1.90
Integral package used                  ... LIBINT
 One Electron integrals                  
   ECP integrals                         ... done
 Ordering auxiliary basis shells         ... done
 Integral threshhold             Thresh  ...  2.500e-11
 Primitive cut-off               TCut    ...  2.500e-12
 Pre-screening matrix                    ... done
 Shell pair data                         ... 
 Ordering of the shell pairs             ... done (   0.001 sec) 4311 of 5151 pairs
 Determination of significant pairs      ... done (   0.000 sec)
 Creation of shell pair data             ... done (   0.002 sec)
 Storage of shell pair data              ... done (   0.001 sec)
 Shell pair data done in (   0.004 sec)
 Computing two index integrals           ... done
 Cholesky decomposition of the V-matrix  ... done


Timings:
 Total evaluation time                   ...   1.106 sec (  0.018 min)
 One electron matrix time                ...   0.480 sec (  0.008 min) = 43.4%
 Schwartz matrix evaluation time         ...   0.335 sec (  0.006 min) = 30.3%
 Two index repulsion integral time       ...   0.010 sec (  0.000 min) =  0.9%
 Cholesky decomposition of V             ...   0.238 sec (  0.004 min) = 21.6%
 Three index repulsion integral time     ...   0.000 sec (  0.000 min) =  0.0%

-------------------------------------------------------------------------------
                                 ORCA SCF
-------------------------------------------------------------------------------

------------
SCF SETTINGS
------------
Hamiltonian:
 Density Functional     Method          .... DFT(GTOs)
 Exchange Functional    Exchange        .... B88
   X-Alpha parameter    XAlpha          ....  0.666667
   Becke's b parameter  XBeta           ....  0.004200
 Correlation Functional Correlation     .... LYP
 LDA part of GGA corr.  LDAOpt          .... VWN-3
 Gradients option       PostSCFGGA      .... off
 Hybrid DFT is turned on
   Fraction HF Exchange ScalHFX         ....  0.530000
   Scaling of DF-GGA-X  ScalDFX         ....  0.470000
   Scaling of DF-GGA-C  ScalDFC         ....  0.730000
   Scaling of DF-LDA-C  ScalLDAC        ....  0.730000
   Perturbative correction              ....  0.270000
 RI-approximation to the Coulomb term is turned on
   Number of auxiliary basis functions  .... 493
   RIJ-COSX (HFX calculated with COS-X)).... on


General Settings:
 Integral files         IntName         .... PbMACl3_mp2_md_14.orca
 Hartree-Fock type      HFTyp           .... RHF
 Total Charge           Charge          ....    0
 Multiplicity           Mult            ....    1
 Number of Electrons    NEL             ....   92
 Basis Dimension        Dim             ....  259
 Nuclear Repulsion      ENuc            ....    594.1297760986 Eh

Convergence Acceleration:
 DIIS                   CNVDIIS         .... on
   Start iteration      DIISMaxIt       ....     0
   Startup error        DIISStart       ....  0.200000
   # of expansion vecs  DIISMaxEq       ....     5
   Bias factor          DIISBfac        ....   1.050
   Max. coefficient     DIISMaxC        ....  10.000
 Newton-Raphson         CNVNR           .... off
 SOSCF                  CNVSOSCF        .... on
   Start iteration      SOSCFMaxIt      ....   150
   Startup grad/error   SOSCFStart      ....  0.001000
 Level Shifting         CNVShift        .... on
   Level shift para.    LevelShift      ....    0.2500
   Turn off err/grad.   ShiftErr        ....    0.0000
 Zerner damping         CNVZerner       .... off
 Static damping         CNVDamp         .... on
   Fraction old density DampFac         ....    0.8500
   Max. Damping (<1)    DampMax         ....    0.9800
   Min. Damping (>=0)   DampMin         ....    0.0000
   Turn off err/grad.   DampErr         ....    0.0300
 Fernandez-Rico         CNVRico         .... off

SCF Procedure:
 Maximum # iterations   MaxIter         ....   125
 SCF integral mode      SCFMode         .... Direct
   Integral package                     .... LIBINT
 Reset frequeny         DirectResetFreq ....    20
 Integral Threshold     Thresh          ....  2.500e-11 Eh
 Primitive CutOff       TCut            ....  2.500e-12 Eh

Convergence Tolerance:
 Convergence Check Mode ConvCheckMode   .... Total+1el-Energy
 Energy Change          TolE            ....  1.000e-08 Eh
 1-El. energy change                    ....  1.000e-05 Eh
 Orbital Gradient       TolG            ....  1.000e-05
 Orbital Rotation angle TolX            ....  1.000e-05
 DIIS Error             TolErr          ....  5.000e-07


Diagonalization of the overlap matrix:
Smallest eigenvalue                        ... 7.229e-04
Time for diagonalization                   ...    0.082 sec
Threshold for overlap eigenvalues          ... 1.000e-08
Number of eigenvalues below threshold      ... 0
Time for construction of square roots      ...    0.009 sec
Total time needed                          ...    0.091 sec

---------------------
INITIAL GUESS: MOREAD
---------------------
Guess MOs are being read from file: previous.gbw
Input geometry compatible with but different from current geometry
Input basis set matches current basis set (good)
MOs were renormalized
MOs were reorthogonalized (Schmidt)
                      ------------------
                      INITIAL GUESS DONE (   0.1 sec)
                      ------------------
-------------------
DFT GRID GENERATION
-------------------

General Integration Accuracy     IntAcc      ...  5.010
Radial Grid Type                 RadialGrid  ... Gauss-Chebyshev
Angular Grid (max. acc.)         AngularGrid ... Lebedev-434
Angular grid pruning method      GridPruning ... 3 (G Style)
Weight generation scheme         WeightScheme... Becke
Basis function cutoff            BFCut       ...    1.0000e-11
Integration weight cutoff        WCut        ...    1.0000e-14
Grids for H and He will be reduced by one unit

# of grid points (after initial pruning)     ... 115882 (   0.1 sec)
# of grid points (after weights+screening)   ... 108728 (   0.4 sec)
nearest neighbour list constructed           ...    0.0 sec
Grid point re-assignment to atoms done       ...    0.0 sec
Grid point division into batches done        ...    1.1 sec
Reduced shell lists constructed in    3.4 sec

Total number of grid points                  ...   108728
Total number of batches                      ...     1704
Average number of points per batch           ...       63
Average number of grid points per atom       ...     9061
Average number of shells per batch           ...    53.53 (53.00%)
Average number of basis functions per batch  ...   141.29 (54.55%)
Average number of large shells per batch     ...    40.58 (75.80%)
Average number of large basis fcns per batch ...   105.30 (74.53%)
Maximum spatial batch extension              ...  37.00, 30.18, 30.56 au
Average spatial batch extension              ...   2.53,  2.34,  2.45 au

Time for grid setup =    3.852 sec

--------------------
COSX GRID GENERATION
--------------------

General Integration Accuracy     IntAcc      ...  3.340
Radial Grid Type                 RadialGrid  ... Gauss-Chebyshev
Angular Grid (max. acc.)         AngularGrid ... Lebedev-50
Angular grid pruning method      GridPruning ... 3 (G Style)
Weight generation scheme         WeightScheme... Becke
Basis function cutoff            BFCut       ...    1.0000e-11
Integration weight cutoff        WCut        ...    1.0000e-14
Grids for H and He will be reduced by one unit

# of grid points (after initial pruning)     ...   6578 (   0.0 sec)
# of grid points (after weights+screening)   ...   6270 (   0.0 sec)
nearest neighbour list constructed           ...    0.0 sec
Grid point re-assignment to atoms done       ...    0.0 sec
Grid point division into batches done        ...    0.0 sec
Reduced shell lists constructed in    0.1 sec

Total number of grid points                  ...     6270
Total number of batches                      ...      104
Average number of points per batch           ...       60
Average number of grid points per atom       ...      522
Average number of shells per batch           ...    64.40 (63.76%)
Average number of basis functions per batch  ...   172.32 (66.53%)
Average number of large shells per batch     ...    50.09 (77.77%)
Average number of large basis fcns per batch ...   132.10 (76.66%)
Maximum spatial batch extension              ...  30.05, 24.76, 36.32 au
Average spatial batch extension              ...   6.87,  6.03,  6.66 au

Overlap Fitting                  UseSFitting ... on
Constructing numerical overlap ... done (      0.1 sec)
Inverting numerical overlap    ... done (      0.0 sec)
Obtaining analytic overlap     ... done (      0.0 sec)
Final contraction and storage  ... done (      0.0 sec)


General Integration Accuracy     IntAcc      ...  3.670
Radial Grid Type                 RadialGrid  ... Gauss-Chebyshev
Angular Grid (max. acc.)         AngularGrid ... Lebedev-50
Angular grid pruning method      GridPruning ... 3 (G Style)
Weight generation scheme         WeightScheme... Becke
Basis function cutoff            BFCut       ...    1.0000e-11
Integration weight cutoff        WCut        ...    1.0000e-14
Grids for H and He will be reduced by one unit

# of grid points (after initial pruning)     ...   8124 (   0.0 sec)
# of grid points (after weights+screening)   ...   7718 (   0.0 sec)
nearest neighbour list constructed           ...    0.0 sec
Grid point re-assignment to atoms done       ...    0.0 sec
Grid point division into batches done        ...    0.0 sec
Reduced shell lists constructed in    0.2 sec

Total number of grid points                  ...     7718
Total number of batches                      ...      126
Average number of points per batch           ...       61
Average number of grid points per atom       ...      643
Average number of shells per batch           ...    64.05 (63.41%)
Average number of basis functions per batch  ...   171.26 (66.12%)
Average number of large shells per batch     ...    49.95 (77.99%)
Average number of large basis fcns per batch ...   131.06 (76.52%)
Maximum spatial batch extension              ...  28.18, 25.65, 37.91 au
Average spatial batch extension              ...   6.20,  5.58,  6.09 au

Overlap Fitting                  UseSFitting ... on
Constructing numerical overlap ... done (      0.1 sec)
Inverting numerical overlap    ... done (      0.0 sec)
Obtaining analytic overlap     ... done (      0.0 sec)
Final contraction and storage  ... done (      0.0 sec)


General Integration Accuracy     IntAcc      ...  4.010
Radial Grid Type                 RadialGrid  ... Gauss-Chebyshev
Angular Grid (max. acc.)         AngularGrid ... Lebedev-110
Angular grid pruning method      GridPruning ... 3 (G Style)
Weight generation scheme         WeightScheme... Becke
Basis function cutoff            BFCut       ...    1.0000e-11
Integration weight cutoff        WCut        ...    1.0000e-14
Grids for H and He will be reduced by one unit

# of grid points (after initial pruning)     ...  15170 (   0.0 sec)
# of grid points (after weights+screening)   ...  14446 (   0.0 sec)
nearest neighbour list constructed           ...    0.0 sec
Grid point re-assignment to atoms done       ...    0.0 sec
Grid point division into batches done        ...    0.0 sec
Reduced shell lists constructed in    0.3 sec

Total number of grid points                  ...    14446
Total number of batches                      ...      232
Average number of points per batch           ...       62
Average number of grid points per atom       ...     1204
Average number of shells per batch           ...    60.80 (60.20%)
Average number of basis functions per batch  ...   162.11 (62.59%)
Average number of large shells per batch     ...    46.67 (76.76%)
Average number of large basis fcns per batch ...   122.69 (75.69%)
Maximum spatial batch extension              ...  39.26, 30.75, 39.35 au
Average spatial batch extension              ...   5.05,  4.37,  5.05 au

Overlap Fitting                  UseSFitting ... on
Constructing numerical overlap ... done (      0.2 sec)
Inverting numerical overlap    ... done (      0.0 sec)
Obtaining analytic overlap     ... done (      0.0 sec)
Final contraction and storage  ... done (      0.0 sec)

Time for X-Grid setup             =    1.447 sec
--------------
SCF ITERATIONS
--------------
ITER       Energy         Delta-E        Max-DP      RMS-DP      [F,P]     Damp
               ***  Starting incremental Fock matrix formation  ***
  0  -1663.9764945362   0.000000000000 0.11375076  0.00193431  0.6692009 0.8500
  1  -1664.6801608756  -0.703666339382 0.10295683  0.00176859  0.5694120 0.8500
                               ***Turning on DIIS***
  2  -1665.2732134807  -0.593052605125 0.08449331  0.00152114  0.4842395 0.8500
  3  -1665.7757851716  -0.502571690946 0.06760540  0.00129684  0.4117798 0.8500
  4  -1666.2099287109  -0.434143539240 0.05524373  0.00112787  0.3501076 0.8500
  5  -1666.5837339390  -0.373805228136 0.04598907  0.00098611  0.2976301 0.8500
  6  -1666.9084429330  -0.324708994016 0.03920117  0.00085664  0.2530001 0.8500
  7  -1667.1914019359  -0.282959002872 0.03380352  0.00073926  0.2150572 0.8500
  8  -1667.4376517880  -0.246249852093 0.02923778  0.00063435  0.1828055 0.8500
  9  -1667.6504636777  -0.212811889755 0.02497700  0.00054239  0.1553909 0.8500
 10  -1667.8336974595  -0.183233781717 0.02115998  0.00046330  0.1320875 0.8500
 11  -1667.9912157501  -0.157518290681 0.01792310  0.00039570  0.1122787 0.8500
 12  -1668.1264737607  -0.135258010537 0.01522537  0.00033795  0.0954405 0.8500
 13  -1668.2424682749  -0.115994514205 0.01296138  0.00028852  0.0811273 0.8500
 14  -1668.3418010332  -0.099332758265 0.01102965  0.00024620  0.0689605 0.8500
 15  -1668.4267607237  -0.084959690595 0.00937352  0.00021005  0.0586184 0.8500
 16  -1668.4993583720  -0.072597648294 0.00796184  0.00017920  0.0498273 0.8500
 17  -1668.5613461885  -0.061987816409 0.00676512  0.00015290  0.0423545 0.8500
 18  -1668.6142408035  -0.052894615026 0.00575133  0.00013046  0.0360025 0.8500
 19  -1668.6593505564  -0.045109752944 0.00489032  0.00011131  0.0306031 0.8500
               *** Restarting incremental Fock matrix formation ***
                                   *** Resetting DIIS ***
 20  -1668.7004505663  -0.041100009923 0.02753568  0.00060218  0.0260142 0.0000
 21  -1668.9200154554  -0.219564889054 0.00538837  0.00008174  0.0094677 0.0000
 22  -1668.9202155455  -0.000200090076 0.00200309  0.00003263  0.0051822 0.0000
                      *** Initiating the SOSCF procedure ***
                           *** Shutting down DIIS ***
                      *** Re-Reading the Fockian *** 
                      *** Removing any level shift *** 
ITER      Energy       Delta-E        Grad      Rot      Max-DP    RMS-DP
 23  -1668.92027198  -0.0000564374  0.000396  0.000396  0.000544  0.000013
               *** Restarting incremental Fock matrix formation ***
 24  -1668.91767393   0.0025980514  0.000352  0.001638  0.001995  0.000032
 25  -1668.91767530  -0.0000013664  0.000102  0.001002  0.000642  0.000014
 26  -1668.91767487   0.0000004270  0.000104  0.000187  0.000438  0.000006
 27  -1668.91767550  -0.0000006298  0.000023  0.000057  0.000106  0.000002
 28  -1668.91767563  -0.0000001262  0.000008  0.000039  0.000043  0.000001
 29  -1668.91767561   0.0000000134  0.000004  0.000002  0.000014  0.000000
                  ***Gradient check signals convergence***
              ***Rediagonalizing the Fockian in SOSCF/NRSCF***

               *****************************************************
               *                     SUCCESS                       *
               *           SCF CONVERGED AFTER  30 CYCLES          *
               *****************************************************

Old exchange energy                            =    -59.274858834 Eh
New exchange energy                            =    -59.277242860 Eh
Exchange energy change after final integration =     -0.002384026 Eh
Total energy after final integration           =  -1668.920059629 Eh
Final COS-X integration done in                =    30.507 sec

----------------
TOTAL SCF ENERGY
----------------

Total Energy       :        -1668.92005963 Eh          -45413.62361 eV

Components:
Nuclear Repulsion  :          594.12977610 Eh           16167.09313 eV
Electronic Energy  :        -2263.04983573 Eh          -61580.71673 eV

One Electron Energy:        -3559.44716067 Eh          -96857.48138 eV
Two Electron Energy:         1296.39732495 Eh           35276.76465 eV

Virial components:
Potential Energy   :        -3207.42115844 Eh          -87278.36687 eV
Kinetic Energy     :         1538.50109881 Eh           41864.74326 eV
Virial Ratio       :            2.08477014


DFT components:
N(Alpha)           :       45.999992084360 electrons
N(Beta)            :       45.999992084360 electrons
N(Total)           :       91.999984168720 electrons
E(X)               :      -52.643397927167 Eh       
E(C)               :       -2.615696917185 Eh       
E(XC)              :      -55.259094844352 Eh       

---------------
SCF CONVERGENCE
---------------

  Last Energy change         ...    1.0135e-08  Tolerance :   1.0000e-08
  Last MAX-Density change    ...    8.3489e-14  Tolerance :   1.0000e-07
  Last RMS-Density change    ...    7.2138e-16  Tolerance :   5.0000e-09
  Last Orbital Gradient      ...    6.1464e-07  Tolerance :   1.0000e-05
  Last Orbital Rotation      ...    9.3765e-07  Tolerance :   1.0000e-05

             **** THE GBW FILE WAS UPDATED (PbMACl3_mp2_md_14.orca.gbw) ****
             **** DENSITY FILE WAS UPDATED (PbMACl3_mp2_md_14.orca.scfp.tmp) ****
             **** ENERGY FILE WAS UPDATED (PbMACl3_mp2_md_14.orca.en.tmp) ****
----------------
ORBITAL ENERGIES
----------------

  NO   OCC          E(Eh)            E(eV) 
   0   2.0000    -102.867737     -2799.1734 
   1   2.0000    -102.828012     -2798.0925 
   2   2.0000    -102.817635     -2797.8101 
   3   2.0000     -14.983639      -407.7255 
   4   2.0000     -10.709149      -291.4108 
   5   2.0000      -9.881361      -268.8855 
   6   2.0000      -9.836705      -267.6703 
   7   2.0000      -9.825437      -267.3637 
   8   2.0000      -7.517614      -204.5647 
   9   2.0000      -7.516490      -204.5341 
  10   2.0000      -7.515916      -204.5185 
  11   2.0000      -7.473212      -203.3564 
  12   2.0000      -7.472132      -203.3270 
  13   2.0000      -7.471857      -203.3196 
  14   2.0000      -7.462254      -203.0583 
  15   2.0000      -7.460816      -203.0191 
  16   2.0000      -7.460484      -203.0101 
  17   2.0000      -5.777153      -157.2043 
  18   2.0000      -3.550873       -96.6242 
  19   2.0000      -3.547739       -96.5389 
  20   2.0000      -3.545691       -96.4832 
  21   2.0000      -1.178978       -32.0816 
  22   2.0000      -0.968840       -26.3635 
  23   2.0000      -0.949741       -25.8438 
  24   2.0000      -0.948280       -25.8040 
  25   2.0000      -0.940155       -25.5829 
  26   2.0000      -0.938806       -25.5462 
  27   2.0000      -0.908386       -24.7184 
  28   2.0000      -0.879907       -23.9435 
  29   2.0000      -0.849900       -23.1269 
  30   2.0000      -0.834207       -22.6999 
  31   2.0000      -0.715622       -19.4731 
  32   2.0000      -0.708845       -19.2887 
  33   2.0000      -0.614993       -16.7348 
  34   2.0000      -0.556406       -15.1406 
  35   2.0000      -0.547395       -14.8954 
  36   2.0000      -0.505607       -13.7583 
  37   2.0000      -0.405569       -11.0361 
  38   2.0000      -0.390337       -10.6216 
  39   2.0000      -0.384222       -10.4552 
  40   2.0000      -0.359554        -9.7840 
  41   2.0000      -0.335875        -9.1396 
  42   2.0000      -0.330219        -8.9857 
  43   2.0000      -0.317368        -8.6360 
  44   2.0000      -0.314883        -8.5684 
  45   2.0000      -0.234361        -6.3773 
  46   0.0000      -0.031063        -0.8453 
  47   0.0000      -0.000886        -0.0241 
  48   0.0000       0.055753         1.5171 
  49   0.0000       0.063501         1.7280 
  50   0.0000       0.067125         1.8266 
  51   0.0000       0.083414         2.2698 
  52   0.0000       0.107548         2.9265 
  53   0.0000       0.131712         3.5841 
  54   0.0000       0.142838         3.8868 
  55   0.0000       0.145261         3.9528 
  56   0.0000       0.150128         4.0852 
  57   0.0000       0.164619         4.4795 
  58   0.0000       0.190589         5.1862 
  59   0.0000       0.207664         5.6508 
  60   0.0000       0.218557         5.9472 
  61   0.0000       0.240065         6.5325 
  62   0.0000       0.249181         6.7805 
  63   0.0000       0.266988         7.2651 
  64   0.0000       0.278889         7.5889 
  65   0.0000       0.291470         7.9313 
  66   0.0000       0.310156         8.4398 
  67   0.0000       0.320111         8.7107 
  68   0.0000       0.343822         9.3559 
  69   0.0000       0.367278         9.9941 
  70   0.0000       0.381360        10.3773 
  71   0.0000       0.404018        10.9939 
  72   0.0000       0.432154        11.7595 
  73   0.0000       0.436369        11.8742 
  74   0.0000       0.448377        12.2010 
  75   0.0000       0.456009        12.4086 
  76   0.0000       0.459440        12.5020 
  77   0.0000       0.461691        12.5632 
  78   0.0000       0.465607        12.6698 
  79   0.0000       0.474939        12.9237 
  80   0.0000       0.485935        13.2230 
  81   0.0000       0.490221        13.3396 
  82   0.0000       0.506644        13.7865 
  83   0.0000       0.517691        14.0871 
  84   0.0000       0.521875        14.2009 
  85   0.0000       0.533882        14.5277 
  86   0.0000       0.545331        14.8392 
  87   0.0000       0.564151        15.3513 
  88   0.0000       0.566622        15.4186 
  89   0.0000       0.568519        15.4702 
  90   0.0000       0.580741        15.8028 
  91   0.0000       0.609914        16.5966 
  92   0.0000       0.613546        16.6954 
  93   0.0000       0.623566        16.9681 
  94   0.0000       0.630384        17.1536 
  95   0.0000       0.646754        17.5991 
  96   0.0000       0.659220        17.9383 
  97   0.0000       0.684746        18.6329 
  98   0.0000       0.697582        18.9822 
  99   0.0000       0.723564        19.6892 
 100   0.0000       0.747497        20.3404 
 101   0.0000       0.768316        20.9070 
 102   0.0000       0.774207        21.0672 
 103   0.0000       0.798313        21.7232 
 104   0.0000       0.800985        21.7959 
 105   0.0000       0.822240        22.3743 
 106   0.0000       0.837292        22.7839 
 107   0.0000       0.883610        24.0443 
 108   0.0000       0.889410        24.2021 
 109   0.0000       0.910219        24.7683 
 110   0.0000       0.924696        25.1623 
 111   0.0000       0.932736        25.3810 
 112   0.0000       0.956681        26.0326 
 113   0.0000       0.963929        26.2299 
 114   0.0000       0.988640        26.9023 
 115   0.0000       1.006193        27.3799 
 116   0.0000       1.026208        27.9245 
 117   0.0000       1.050388        28.5825 
 118   0.0000       1.083024        29.4706 
 119   0.0000       1.091333        29.6967 
 120   0.0000       1.116669        30.3861 
 121   0.0000       1.134111        30.8607 
 122   0.0000       1.165828        31.7238 
 123   0.0000       1.187007        32.3001 
 124   0.0000       1.203649        32.7530 
 125   0.0000       1.273793        34.6617 
 126   0.0000       1.299691        35.3664 
 127   0.0000       1.332324        36.2544 
 128   0.0000       1.353826        36.8395 
 129   0.0000       1.365648        37.1612 
 130   0.0000       1.407486        38.2996 
 131   0.0000       1.532956        41.7138 
 132   0.0000       1.585380        43.1404 
 133   0.0000       1.608415        43.7672 
 134   0.0000       1.643433        44.7201 
 135   0.0000       1.675423        45.5906 
 136   0.0000       1.738966        47.3197 
 137   0.0000       1.777504        48.3683 
 138   0.0000       1.785880        48.5963 
 139   0.0000       1.835892        49.9572 
 140   0.0000       1.864155        50.7262 
 141   0.0000       1.908618        51.9361 
 142   0.0000       1.919746        52.2389 
 143   0.0000       1.949532        53.0495 
 144   0.0000       1.950563        53.0775 
 145   0.0000       1.965616        53.4871 
 146   0.0000       1.976963        53.7959 
 147   0.0000       1.980659        53.8965 
 148   0.0000       1.996853        54.3371 
 149   0.0000       2.016513        54.8721 
 150   0.0000       2.020298        54.9751 
 151   0.0000       2.041604        55.5549 
 152   0.0000       2.059223        56.0343 
 153   0.0000       2.062857        56.1332 
 154   0.0000       2.079619        56.5893 
 155   0.0000       2.096366        57.0450 
 156   0.0000       2.102605        57.2148 
 157   0.0000       2.118290        57.6416 
 158   0.0000       2.141304        58.2678 
 159   0.0000       2.142316        58.2954 
 160   0.0000       2.150118        58.5077 
 161   0.0000       2.157359        58.7047 
 162   0.0000       2.165700        58.9317 
 163   0.0000       2.174563        59.1729 
 164   0.0000       2.186671        59.5023 
 165   0.0000       2.196991        59.7832 
 166   0.0000       2.211303        60.1726 
 167   0.0000       2.237025        60.8726 
 168   0.0000       2.255013        61.3620 
 169   0.0000       2.266520        61.6751 
 170   0.0000       2.267244        61.6948 
 171   0.0000       2.273657        61.8694 
 172   0.0000       2.287359        62.2422 
 173   0.0000       2.287868        62.2560 
 174   0.0000       2.289245        62.2935 
 175   0.0000       2.300900        62.6107 
 176   0.0000       2.313638        62.9573 
 177   0.0000       2.328894        63.3724 
 178   0.0000       2.341629        63.7190 
 179   0.0000       2.361662        64.2641 
 180   0.0000       2.369398        64.4746 
 181   0.0000       2.378425        64.7202 
 182   0.0000       2.387083        64.9558 
 183   0.0000       2.404673        65.4345 
 184   0.0000       2.406218        65.4765 
 185   0.0000       2.424562        65.9757 
 186   0.0000       2.433345        66.2147 
 187   0.0000       2.443848        66.5005 
 188   0.0000       2.445007        66.5320 
 189   0.0000       2.452647        66.7399 
 190   0.0000       2.470248        67.2189 
 191   0.0000       2.482390        67.5493 
 192   0.0000       2.486892        67.6718 
 193   0.0000       2.503223        68.1162 
 194   0.0000       2.509396        68.2841 
 195   0.0000       2.566030        69.8252 
 196   0.0000       2.581439        70.2445 
 197   0.0000       2.603863        70.8547 
 198   0.0000       2.609629        71.0116 
 199   0.0000       2.641333        71.8743 
 200   0.0000       2.663769        72.4848 
 201   0.0000       2.687249        73.1238 
 202   0.0000       2.715118        73.8821 
 203   0.0000       2.749111        74.8071 
 204   0.0000       2.792099        75.9769 
 205   0.0000       2.800243        76.1985 
 206   0.0000       2.810220        76.4700 
 207   0.0000       2.836914        77.1964 
 208   0.0000       2.897863        78.8549 
 209   0.0000       2.939169        79.9789 
 210   0.0000       2.968351        80.7729 
 211   0.0000       3.071927        83.5914 
 212   0.0000       3.114038        84.7373 
 213   0.0000       3.150843        85.7388 
 214   0.0000       3.225427        87.7683 
 215   0.0000       3.301047        89.8261 
 216   0.0000       3.332280        90.6760 
 217   0.0000       3.443315        93.6974 
 218   0.0000       3.585886        97.5769 
 219   0.0000       3.602457        98.0278 
 220   0.0000       3.623964        98.6131 
 221   0.0000       3.654384        99.4409 
 222   0.0000       3.781653       102.9040 
 223   0.0000       3.810606       103.6919 
 224   0.0000       4.019451       109.3748 
 225   0.0000       4.168212       113.4228 
 226   0.0000       4.358876       118.6111 
 227   0.0000       4.399118       119.7061 
 228   0.0000       4.521882       123.0467 
 229   0.0000       4.784841       130.2021 
 230   0.0000       4.842498       131.7711 
 231   0.0000       4.855437       132.1232 
 232   0.0000       4.911949       133.6609 
 233   0.0000       5.092656       138.5782 
 234   0.0000       5.102115       138.8356 
 235   0.0000       5.154751       140.2679 
 236   0.0000       5.283286       143.7655 
 237   0.0000       5.510190       149.9399 
 238   0.0000       5.595849       152.2708 
 239   0.0000       5.937803       161.5758 
 240   0.0000      11.052435       300.7521 
 241   0.0000      11.081415       301.5406 
 242   0.0000      11.092628       301.8458 
 243   0.0000      11.101136       302.0773 
 244   0.0000      11.126315       302.7624 
 245   0.0000      11.167591       303.8856 
 246   0.0000      11.216313       305.2114 
 247   0.0000      11.252785       306.2039 
 248   0.0000      11.324997       308.1688 
 249   0.0000      22.642654       616.1379 
 250   0.0000      25.244783       686.9455 
 251   0.0000      25.304415       688.5681 
 252   0.0000      25.530344       694.7160 
 253   0.0000      32.321528       879.5135 
 254   0.0000      35.654521       970.2088 
 255   0.0000      35.761222       973.1123 
 256   0.0000      35.885273       976.4879 
 257   0.0000      35.929793       977.6994 
 258   0.0000     123.665265      3365.1030 

                    ********************************
                    * MULLIKEN POPULATION ANALYSIS *
                    ********************************

-----------------------
MULLIKEN ATOMIC CHARGES
-----------------------
   0 C :   -0.266739
   1 N :   -0.296231
   2 H :    0.271629
   3 H :    0.280733
   4 H :    0.277173
   5 H :    0.176595
   6 H :    0.157341
   7 H :    0.163814
   8 Pb:    0.845105
   9 Cl:   -0.533669
  10 Cl:   -0.523815
  11 Cl:   -0.551936
Sum of atomic charges:   -0.0000000

--------------------------------
MULLIKEN REDUCED ORBITAL CHARGES
--------------------------------
  0 C s       :     3.235682  s :     3.235682
      pz      :     1.030175  p :     2.960819
      px      :     0.835330
      py      :     1.095315
      dz2     :     0.015018  d :     0.064670
      dxz     :     0.013272
      dyz     :     0.013070
      dx2y2   :     0.013440
      dxy     :     0.009870
      f0      :     0.000648  f :     0.005568
      f+1     :     0.000787
      f-1     :     0.000363
      f+2     :     0.001290
      f-2     :     0.000831
      f+3     :     0.000682
      f-3     :     0.000966
  1 N s       :     3.407128  s :     3.407128
      pz      :     1.372120  p :     3.840999
      px      :     1.222923
      py      :     1.245956
      dz2     :     0.012249  d :     0.045902
      dxz     :     0.007133
      dyz     :     0.006188
      dx2y2   :     0.015246
      dxy     :     0.005086
      f0      :     0.000342  f :     0.002202
      f+1     :     0.000192
      f-1     :     0.000418
      f+2     :     0.000364
      f-2     :     0.000153
      f+3     :     0.000209
      f-3     :     0.000524
  2 H s       :     0.693197  s :     0.693197
      pz      :     0.007746  p :     0.035174
      px      :     0.006217
      py      :     0.021211
  3 H s       :     0.652042  s :     0.652042
      pz      :     0.037139  p :     0.067224
      px      :     0.008847
      py      :     0.021238
  4 H s       :     0.685879  s :     0.685879
      pz      :     0.009792  p :     0.036948
      px      :     0.019647
      py      :     0.007510
  5 H s       :     0.801366  s :     0.801366
      pz      :     0.005974  p :     0.022039
      px      :     0.011896
      py      :     0.004168
  6 H s       :     0.818049  s :     0.818049
      pz      :     0.013325  p :     0.024610
      px      :     0.004181
      py      :     0.007104
  7 H s       :     0.808078  s :     0.808078
      pz      :     0.007015  p :     0.028108
      px      :     0.002936
      py      :     0.018157
  8 Pbs       :     3.976868  s :     3.976868
      pz      :     2.309828  p :     6.923576
      px      :     2.309069
      py      :     2.304679
      dz2     :     2.033892  d :    10.175908
      dxz     :     2.042845
      dyz     :     2.034914
      dx2y2   :     2.036207
      dxy     :     2.028049
      f0      :     0.013728  f :     0.078543
      f+1     :     0.009915
      f-1     :     0.011203
      f+2     :     0.011840
      f-2     :     0.009476
      f+3     :     0.011747
      f-3     :     0.010634
  9 Cls       :     5.949863  s :     5.949863
      pz      :     3.884594  p :    11.563467
      px      :     3.871306
      py      :     3.807567
      dz2     :     0.002511  d :     0.019373
      dxz     :     0.002197
      dyz     :     0.003633
      dx2y2   :     0.003345
      dxy     :     0.007686
      f0      :     0.000106  f :     0.000966
      f+1     :     0.000065
      f-1     :     0.000107
      f+2     :     0.000059
      f-2     :     0.000210
      f+3     :     0.000241
      f-3     :     0.000178
 10 Cls       :     5.945187  s :     5.945187
      pz      :     3.878190  p :    11.539277
      px      :     3.923097
      py      :     3.737990
      dz2     :     0.005002  d :     0.036921
      dxz     :     0.003510
      dyz     :     0.014695
      dx2y2   :     0.009417
      dxy     :     0.004296
      f0      :     0.000263  f :     0.002430
      f+1     :     0.000054
      f-1     :     0.000421
      f+2     :     0.000782
      f-2     :     0.000245
      f+3     :     0.000297
      f-3     :     0.000368
 11 Cls       :     5.950010  s :     5.950010
      pz      :     3.828925  p :    11.580637
      px      :     3.846195
      py      :     3.905518
      dz2     :     0.008124  d :     0.020400
      dxz     :     0.006914
      dyz     :     0.002294
      dx2y2   :     0.001746
      dxy     :     0.001322
      f0      :     0.000210  f :     0.000889
      f+1     :     0.000350
      f-1     :     0.000089
      f+2     :     0.000118
      f-2     :     0.000080
      f+3     :     0.000026
      f-3     :     0.000017


                     *******************************
                     * LOEWDIN POPULATION ANALYSIS *
                     *******************************

----------------------
LOEWDIN ATOMIC CHARGES
----------------------
   0 C :   -0.286068
   1 N :    0.111513
   2 H :    0.182304
   3 H :    0.027972
   4 H :    0.179124
   5 H :    0.133503
   6 H :    0.110940
   7 H :    0.118817
   8 Pb:   -0.119766
   9 Cl:   -0.202150
  10 Cl:   -0.032713
  11 Cl:   -0.223477

-------------------------------
LOEWDIN REDUCED ORBITAL CHARGES
-------------------------------
  0 C s       :     2.856872  s :     2.856872
      pz      :     1.065622  p :     3.121015
      px      :     0.930701
      py      :     1.124692
      dz2     :     0.055178  d :     0.275922
      dxz     :     0.068082
      dyz     :     0.044559
      dx2y2   :     0.065574
      dxy     :     0.042528
      f0      :     0.004713  f :     0.032259
      f+1     :     0.004077
      f-1     :     0.004051
      f+2     :     0.004288
      f-2     :     0.005867
      f+3     :     0.004354
      f-3     :     0.004910
  1 N s       :     2.983681  s :     2.983681
      pz      :     1.297071  p :     3.736291
      px      :     1.216062
      py      :     1.223159
      dz2     :     0.038703  d :     0.158703
      dxz     :     0.026036
      dyz     :     0.020152
      dx2y2   :     0.054571
      dxy     :     0.019241
      f0      :     0.001246  f :     0.009811
      f+1     :     0.000998
      f-1     :     0.002061
      f+2     :     0.001236
      f-2     :     0.001295
      f+3     :     0.001180
      f-3     :     0.001796
  2 H s       :     0.710174  s :     0.710174
      pz      :     0.025470  p :     0.107522
      px      :     0.019192
      py      :     0.062860
  3 H s       :     0.722452  s :     0.722452
      pz      :     0.143047  p :     0.249576
      px      :     0.025645
      py      :     0.080884
  4 H s       :     0.709310  s :     0.709310
      pz      :     0.032599  p :     0.111565
      px      :     0.055287
      py      :     0.023680
  5 H s       :     0.802595  s :     0.802595
      pz      :     0.018218  p :     0.063902
      px      :     0.031998
      py      :     0.013686
  6 H s       :     0.815901  s :     0.815901
      pz      :     0.037594  p :     0.073159
      px      :     0.013443
      py      :     0.022123
  7 H s       :     0.801898  s :     0.801898
      pz      :     0.018877  p :     0.079284
      px      :     0.009423
      py      :     0.050985
  8 Pbs       :     3.702495  s :     3.702495
      pz      :     2.474918  p :     7.393033
      px      :     2.426814
      py      :     2.491301
      dz2     :     2.146488  d :    10.770225
      dxz     :     2.167054
      dyz     :     2.167450
      dx2y2   :     2.147440
      dxy     :     2.141793
      f0      :     0.045491  f :     0.254013
      f+1     :     0.036725
      f-1     :     0.028872
      f+2     :     0.042803
      f-2     :     0.028837
      f+3     :     0.038193
      f-3     :     0.033093
  9 Cls       :     5.739197  s :     5.739197
      pz      :     3.831346  p :    11.420109
      px      :     3.820863
      py      :     3.767900
      dz2     :     0.005775  d :     0.040408
      dxz     :     0.004123
      dyz     :     0.005730
      dx2y2   :     0.002898
      dxy     :     0.021882
      f0      :     0.000311  f :     0.002436
      f+1     :     0.000144
      f-1     :     0.000202
      f+2     :     0.000058
      f-2     :     0.000587
      f+3     :     0.000750
      f-3     :     0.000384
 10 Cls       :     5.647288  s :     5.647288
      pz      :     3.779972  p :    11.287703
      px      :     3.853625
      py      :     3.654105
      dz2     :     0.008573  d :     0.090862
      dxz     :     0.005036
      dyz     :     0.040034
      dx2y2   :     0.026384
      dxy     :     0.010835
      f0      :     0.000957  f :     0.006859
      f+1     :     0.000109
      f-1     :     0.000894
      f+2     :     0.002530
      f-2     :     0.000745
      f+3     :     0.000718
      f-3     :     0.000905
 11 Cls       :     5.738626  s :     5.738626
      pz      :     3.793613  p :    11.436035
      px      :     3.797943
      py      :     3.844480
      dz2     :     0.022871  d :     0.046225
      dxz     :     0.016761
      dyz     :     0.002422
      dx2y2   :     0.002679
      dxy     :     0.001492
      f0      :     0.000619  f :     0.002591
      f+1     :     0.001368
      f-1     :     0.000150
      f+2     :     0.000270
      f-2     :     0.000092
      f+3     :     0.000059
      f-3     :     0.000032


                      *****************************
                      * MAYER POPULATION ANALYSIS *
                      *****************************

  NA   - Mulliken gross atomic population
  ZA   - Total nuclear charge
  QA   - Mulliken gross atomic charge
  VA   - Mayer's total valence
  BVA  - Mayer's bonded valence
  FA   - Mayer's free valence

  ATOM       NA         ZA         QA         VA         BVA        FA
  0 C      6.2667     6.0000    -0.2667     3.6808     3.6808    -0.0000
  1 N      7.2962     7.0000    -0.2962     3.3202     3.3202     0.0000
  2 H      0.7284     1.0000     0.2716     0.9269     0.9269    -0.0000
  3 H      0.7193     1.0000     0.2807     1.0398     1.0398     0.0000
  4 H      0.7228     1.0000     0.2772     0.9307     0.9307    -0.0000
  5 H      0.8234     1.0000     0.1766     0.9738     0.9738    -0.0000
  6 H      0.8427     1.0000     0.1573     0.9733     0.9733     0.0000
  7 H      0.8362     1.0000     0.1638     1.0407     1.0407    -0.0000
  8 Pb    21.1549    22.0000     0.8451     1.8910     1.8910    -0.0000
  9 Cl    17.5337    17.0000    -0.5337     0.8000     0.8000    -0.0000
 10 Cl    17.5238    17.0000    -0.5238     0.8020     0.8020    -0.0000
 11 Cl    17.5519    17.0000    -0.5519     0.7533     0.7533    -0.0000

  Mayer bond orders larger than 0.1
B(  0-C ,  1-N ) :   0.8514 B(  0-C ,  5-H ) :   0.9596 B(  0-C ,  6-H ) :   0.9748 
B(  0-C ,  7-H ) :   0.9164 B(  1-N ,  2-H ) :   0.9036 B(  1-N ,  3-H ) :   0.7068 
B(  1-N ,  4-H ) :   0.9097 B(  3-H , 10-Cl) :   0.3132 B(  7-H , 11-Cl) :   0.1296 
B(  8-Pb,  9-Cl) :   0.7771 B(  8-Pb, 10-Cl) :   0.4633 B(  8-Pb, 11-Cl) :   0.6330 


-------
TIMINGS
-------

Total SCF time: 0 days 0 hours 9 min 30 sec 

Total time                  ....     570.923 sec
Sum of individual times     ....     538.942 sec  ( 94.4%)

Fock matrix formation       ....     531.876 sec  ( 93.2%)
  Coulomb formation         ....     438.087 sec  ( 82.4% of F)
  Split-RI-J                ....      37.105 sec  (  7.0% of F)
  Chain of spheres X        ....     431.354 sec  ( 81.1% of F)
  COS-X 1 center corr.      ....       0.000 sec  (  0.0% of F)
  XC integration            ....      93.827 sec  ( 17.6% of F)
    Basis function eval.    ....      34.656 sec  ( 36.9% of XC)
    Density eval.           ....      21.434 sec  ( 22.8% of XC)
    XC-Functional eval.     ....       6.163 sec  (  6.6% of XC)
    XC-Potential eval.      ....      29.772 sec  ( 31.7% of XC)
Diagonalization             ....       0.993 sec  (  0.2%)
Density matrix formation    ....       0.083 sec  (  0.0%)
Population analysis         ....       0.074 sec  (  0.0%)
Initial guess               ....       0.143 sec  (  0.0%)
Orbital Transformation      ....       0.000 sec  (  0.0%)
Orbital Orthonormalization  ....       0.138 sec  (  0.0%)
DIIS solution               ....       0.317 sec  (  0.1%)
SOSCF solution              ....       0.159 sec  (  0.0%)
Grid generation             ....       5.299 sec  (  0.9%)

------------------------------------------------------------------------------
                              ORCA MP2 CALCULATION
------------------------------------------------------------------------------


----------------------
RI-MP2 ENERGY+GRADIENT
----------------------
Dimension of the basis                    ...  259
Memory devoted to MP2                     ... 1000 MB   
Data format for buffers                   ... DOUBLE
Compression type for matrix containers    ... UNCOMPRESSED
Overall scaling of the MP2 energy         ...   2.700e-01 Eh
Calculating two index integrals           ... done (    0.019 sec)
Cholesky decomposition of the V-matrix    ... done
Cholesky decomposition of V**-1           ... done (    0.040 sec)

-----------------
RI-TRANSFORMATION (AUX index driven)
-----------------

Dimension of the orbital-basis         ... 259
Dimension of the aux-basis             ... 493
Transformation of internal MOs         ...    0-  45
Transformation of internal/external MOs...    0-  45 to   46- 258
Number Format for Storage              ... Double (8 Byte)
Integral mode                          ... Direct

First Phase: integral generation and transformation of MO indices
  Aux angular momentum 0               ... done (    0.632 sec)
  Aux angular momentum 1               ... done (    0.477 sec)
  Aux angular momentum 2               ... done (    0.592 sec)
  Aux angular momentum 3               ... done (    0.330 sec)
  Aux angular momentum 4               ... done (    0.311 sec)
Closing buffer VIJ ( 0.00 GB; CompressionRatio= 1.95)
Closing buffer VIA ( 0.04 GB; CompressionRatio= 1.00)
  Phase 1 completed in     2.492 sec
Second Phase: sorting and transformation of aux index

IJ-Transformation
Memory available                       ... 990 MB 
Max. # MO pairs treated in a batch     ... 46    
# of internal orbitals                 ... 46
# batches for internal orbitals        ... 1
Closing buffer IJV ( 0.00 GB; CompressionRatio= 1.00)
(ij|v) transformation done in     0.151 sec

IA-Transformation
Memory available                       ... 990 MB 
Max. # MO pairs treated in a batch     ... 46    
# of internal orbitals                 ... 46
# batches for internal orbitals        ... 1
Closing buffer IAV ( 0.04 GB; CompressionRatio= 1.00)
(ia|v) transformation done in     0.614 sec

  Phase 2 completed in     0.793 sec
RI-Integral transformation completed in     3.286 sec
Opening buffers                              ... done

Starting loop over batches of integrals:

Operator 0  - window                       ... (  0- 45)x( 46-258)
Operator 0  - Memory available             ...  1000 MB
Operator 0  - Memory needed per MO         ...   1.6 MB
Operator 0  - Number of orbitals per batch ... 46
Operator 0  - Number of batches            ... 1

OPERATOR  0   PASS   0:  MOs     0 ...   45
  Reading integrals       ... ok
  Internal MO   2
  Internal MO   5
  Internal MO   8
  Internal MO  11
  Internal MO  14
  Internal MO  17
  Internal MO  20
  Internal MO  23
  Internal MO  26
  Internal MO  29
  Internal MO  32
  Internal MO  35
  Internal MO  38
  Internal MO  41
  Internal MO  44
Closing buffer GIPV ( 0.04 GB; CompressionRatio= 1.00)
Time spent in pair loops =    63.840 sec

-----------------------------------------------
 RI-MP2 CORRELATION ENERGY:     -0.584999871 Eh
-----------------------------------------------


---------------------
MP2 DENSITY FORMATION
---------------------

Completing the external part of the density      ... done
Storing the unrelaxed density                    ... done

Calculating the xc-kernel                        ... done
Calculating G(D)                                 ... done
Completing the Lagrangian                        ... done
Solving the Z-vector equations                   ... 

------------------------------------------------------------------------------
                           ORCA CP-SCF CALCULATION
------------------------------------------------------------------------------

Input orbitals are from        ... PbMACl3_mp2_md_14.orca.gbw
Input Perturbation             ... PbMACl3_mp2_md_14.orca.pin.tmp
Wavefunction output            ... PbMACl3_mp2_md_14.orca.pout.tmp
Perturbation mode              ... Real perturbation
Solver                         ... DIIS
   MaxDIIS                     ... 20
   Levelshift                  ...    3.000e-01 Eh
Max. number of iterations      ... 128
Convergence tolerance          ... 1.000e-08
Integral handling              ... Direct
COSX GridX                     ... 1
Number of perturbations        ... 1
Number of operators            ... 1
Orbital ranges used for CP-SCF:
 Operator 0:  Orbitals   0... 45  to  46...258
DFT calculation                         ... on
Exchange functional (SCF)               ... B88
Exchange functional (CP-SCF)            ... B88
   X-Alpha parameter    XAlpha (SCF)    ...  0.666667
   X-Alpha parameter    XAlpha (CP-SCF) ...  0.666667
   Becke's b parameter  XBeta (SCF)     ...  0.004200
   Becke's b parameter  XBeta (CP-SCF)  ...  0.004200
Correlation functional (SCF)            ... LYP
Correlation functional (CP-SCF)         ... LYP
 LDA part of GGA corr.  LDAOpt (SCF)    ... VWN-3
 LDA part of GGA corr.  LDAOpt (CP-SCF) ... VWN-3
Hybrid DFT                              ... on
   Exchange mixing (SCF)                ...  0.530
   Exchange mixing (CP-SCF)             ...  0.530
   GGA exch. scaling(SCF)               ...  0.470
   GGA exch. scaling (CP-SCF)           ...  0.470
   GGA corr. scaling (SCF)              ...  0.730
   GGA corr. scaling (CP-SCF)           ...  0.730
The RIJCOSX approximation is active
Variables per vector in CP-SCF ... 9798
Number of vectors sought       ... 1
Calculating the xc-kernel      ... done

Solving the CP-SCF equations by a DIIS algorithm

-----------------
CP-SCF ITERATIONS
-----------------
  Iteration   0: MaxR=  0.083162214
  Iteration   1: MaxR=  0.036702458
  Iteration   2: MaxR=  0.011383625
  Iteration   3: MaxR=  0.005241821
  Iteration   4: MaxR=  0.003324856
  Iteration   5: MaxR=  0.001736605
  Iteration   6: MaxR=  0.000812551
  Iteration   7: MaxR=  0.000276556
  Iteration   8: MaxR=  0.000125335
  Iteration   9: MaxR=  0.000051080
  Iteration  10: MaxR=  0.000022240
  Iteration  11: MaxR=  0.000008243
  Iteration  12: MaxR=  0.000003936
  Iteration  13: MaxR=  0.000001435
  Iteration  14: MaxR=  0.000000550
  Iteration  15: MaxR=  0.000000199
  Iteration  16: MaxR=  0.000000064
  Iteration  17: MaxR=  0.000000024
  Iteration  18: MaxR=  0.000000009
                              *** THE CP-SCF HAS CONVERGED *** 
done
Finalizing the relaxed density                   ... done
Transforming P to the AO basis                   ... done
Storing the relaxed density                      ... done

------------------------------------
ENERGY WEIGHTED DENSITY FINALIZATION
------------------------------------

Gathering the parts of the W-matrix              ... done
Forming the Z-density                            ... done
Transforming Z to the AO basis                   ... done
Calculating G(Z)                                 ... done
Finalizing the W-matrix                          ... done
Transforming W to the AO basis and storing       ... done
Entering the RIJONX and RIJCOSX sections
Starting the three-index derivative integrals:
Operator 0  - Memory available             ...  1000 MB
Operator 0  - Memory needed per MO         ...   1.0 MB
Operator 0  - Number of orbitals per batch ... 46
Operator 0  - Number of batches            ... 1

OPERATOR  0   PASS   0:  MOs     0 ...   45

----------------------------------
MP2 DERIVATIVE INTEGRAL GENERATION
----------------------------------


Input Correlated Electron Density   ... PbMACl3_mp2_md_14.orca.pmp2re
Input Energy Weighted Density       ... PbMACl3_mp2_md_14.orca.wmp2.tmp
Input SCF Electron Density          ... PbMACl3_mp2_md_14.orca.scfp.tmp

One-Electron Terms    ...
  ECP gradient                                           ... One-Electron Terms done

-----------------------------------------------------------
MP2 COSX Grid Generation
-----------------------------------------------------------

General Integration Accuracy     IntAcc      ...  4.340
Radial Grid Type                 RadialGrid  ... Gauss-Chebyshev
Angular Grid (max. acc.)         AngularGrid ... Lebedev-302
Angular grid pruning method      GridPruning ... 3 (G Style)
Weight generation scheme         WeightScheme... Becke
Basis function cutoff            BFCut       ...    1.0000e-11
Integration weight cutoff        WCut        ...    1.0000e-14
Grids for H and He will be reduced by one unit

# of grid points (after initial pruning)     ...  57718 (   0.0 sec)
# of grid points (after weights+screening)   ...  54388 (   0.2 sec)
nearest neighbour list constructed           ...    0.0 sec
Grid point re-assignment to atoms done       ...    0.0 sec
Grid point division into batches done        ...    0.3 sec
Reduced shell lists constructed in    1.4 sec

Total number of grid points                  ...    54388
Total number of batches                      ...      855
Average number of points per batch           ...       63
Average number of grid points per atom       ...     4532
Average number of shells per batch           ...    55.21 (54.66%)
Average number of basis functions per batch  ...   146.25 (56.47%)
Average number of large shells per batch     ...    42.00 (76.07%)
Average number of large basis fcns per batch ...   109.61 (74.95%)
Maximum spatial batch extension              ...  43.14, 28.94, 35.03 au
Average spatial batch extension              ...   3.29,  2.93,  3.23 au

Overlap Fitting                  UseSFitting ... on
Two electron COSX terms .... 
Integration Timings:
Total Time                  =   122.8 sec
Basis fcn evaluation        =     0.6 sec
Density evaluation          =     1.4 sec
Integral evaluation         =   118.0 sec
K(P) evaluation             =     1.1 sec
                          .... COSX two electron terms done
COSX two-electron contribution to the gradient
     0:     0.062576     0.003036    -0.102420
     1:    -0.092254    -0.067531     0.029689
     2:    -0.004908     0.211877    -0.023337
     3:     0.003004    -0.030541    -0.133512
     4:     0.201178    -0.050306     0.078179
     5:    -0.154331     0.029816    -0.076680
     6:    -0.026407     0.043380     0.159042
     7:     0.014023    -0.136225     0.069418
     8:    -0.013469     0.040612     0.000808
     9:     0.044083    -0.058910    -0.027922
    10:    -0.000327     0.021311    -0.021472
    11:    -0.032939    -0.006024     0.048280
Exchange-correlation gradient    ... done
Dispersion correction            ... 
Entering the calculation of the dispersion correction...

Checking the input atom types...

Done
done

                *********************************************
                * UNRELAXED MP2 DENSITY POPULATION ANALYSIS *
                *********************************************

------------------------------------------------------------------------------
                           ORCA POPULATION ANALYSIS
------------------------------------------------------------------------------
Input electron density              ... PbMACl3_mp2_md_14.orca.pmp2ur
BaseName (.gbw .S,...)              ... PbMACl3_mp2_md_14.orca

                    ********************************
                    * MULLIKEN POPULATION ANALYSIS *
                    ********************************

-----------------------
MULLIKEN ATOMIC CHARGES
-----------------------
   0 C :   -0.271635
   1 N :   -0.295402
   2 H :    0.271780
   3 H :    0.279501
   4 H :    0.277494
   5 H :    0.177721
   6 H :    0.158307
   7 H :    0.163616
   8 Pb:    0.829026
   9 Cl:   -0.526517
  10 Cl:   -0.518633
  11 Cl:   -0.545260
Sum of atomic charges:   -0.0000000

--------------------------------
MULLIKEN REDUCED ORBITAL CHARGES
--------------------------------
  0 C s       :     3.234447  s :     3.234447
      pz      :     1.028630  p :     2.956460
      px      :     0.835128
      py      :     1.092703
      dz2     :     0.017076  d :     0.074014
      dxz     :     0.014869
      dyz     :     0.015215
      dx2y2   :     0.015119
      dxy     :     0.011735
      f0      :     0.000815  f :     0.006714
      f+1     :     0.000967
      f-1     :     0.000531
      f+2     :     0.001447
      f-2     :     0.000987
      f+3     :     0.000850
      f-3     :     0.001117
  1 N s       :     3.405196  s :     3.405196
      pz      :     1.367801  p :     3.830227
      px      :     1.219348
      py      :     1.243078
      dz2     :     0.014456  d :     0.056729
      dxz     :     0.009296
      dyz     :     0.008458
      dx2y2   :     0.017289
      dxy     :     0.007231
      f0      :     0.000493  f :     0.003250
      f+1     :     0.000347
      f-1     :     0.000566
      f+2     :     0.000513
      f-2     :     0.000299
      f+3     :     0.000364
      f-3     :     0.000668
  2 H s       :     0.692388  s :     0.692388
      pz      :     0.008010  p :     0.035832
      px      :     0.006479
      py      :     0.021343
  3 H s       :     0.652518  s :     0.652518
      pz      :     0.037245  p :     0.067980
      px      :     0.009203
      py      :     0.021532
  4 H s       :     0.684926  s :     0.684926
      pz      :     0.010035  p :     0.037580
      px      :     0.019795
      py      :     0.007750
  5 H s       :     0.799261  s :     0.799261
      pz      :     0.006319  p :     0.023017
      px      :     0.012169
      py      :     0.004530
  6 H s       :     0.816036  s :     0.816036
      pz      :     0.013628  p :     0.025657
      px      :     0.004566
      py      :     0.007463
  7 H s       :     0.807326  s :     0.807326
      pz      :     0.007342  p :     0.029058
      px      :     0.003341
      py      :     0.018375
  8 Pbs       :     3.953651  s :     3.953651
      pz      :     2.320617  p :     6.955498
      px      :     2.320383
      py      :     2.314498
      dz2     :     2.028189  d :    10.146832
      dxz     :     2.036750
      dyz     :     2.029229
      dx2y2   :     2.030394
      dxy     :     2.022270
      f0      :     0.018900  f :     0.114992
      f+1     :     0.015049
      f-1     :     0.016541
      f+2     :     0.017002
      f-2     :     0.014721
      f+3     :     0.016924
      f-3     :     0.015855
  9 Cls       :     5.945172  s :     5.945172
      pz      :     3.870093  p :    11.519669
      px      :     3.856580
      py      :     3.792997
      dz2     :     0.010188  d :     0.058000
      dxz     :     0.009905
      dyz     :     0.011344
      dx2y2   :     0.011181
      dxy     :     0.015383
      f0      :     0.000484  f :     0.003676
      f+1     :     0.000445
      f-1     :     0.000491
      f+2     :     0.000446
      f-2     :     0.000597
      f+3     :     0.000636
      f-3     :     0.000578
 10 Cls       :     5.940681  s :     5.940681
      pz      :     3.862993  p :    11.494836
      px      :     3.908305
      py      :     3.723537
      dz2     :     0.013173  d :     0.077763
      dxz     :     0.011524
      dyz     :     0.022903
      dx2y2   :     0.017635
      dxy     :     0.012527
      f0      :     0.000680  f :     0.005353
      f+1     :     0.000454
      f-1     :     0.000870
      f+2     :     0.001200
      f-2     :     0.000667
      f+3     :     0.000707
      f-3     :     0.000776
 11 Cls       :     5.945381  s :     5.945381
      pz      :     3.814180  p :    11.536529
      px      :     3.831545
      py      :     3.890804
      dz2     :     0.016019  d :     0.059707
      dxz     :     0.014738
      dyz     :     0.010283
      dx2y2   :     0.009548
      dxy     :     0.009120
      f0      :     0.000620  f :     0.003642
      f+1     :     0.000748
      f-1     :     0.000495
      f+2     :     0.000510
      f-2     :     0.000473
      f+3     :     0.000403
      f-3     :     0.000394


                     *******************************
                     * LOEWDIN POPULATION ANALYSIS *
                     *******************************

----------------------
LOEWDIN ATOMIC CHARGES
----------------------
   0 C :   -0.289840
   1 N :    0.111043
   2 H :    0.182381
   3 H :    0.028295
   4 H :    0.179325
   5 H :    0.134282
   6 H :    0.111613
   7 H :    0.119145
   8 Pb:   -0.131068
   9 Cl:   -0.196618
  10 Cl:   -0.030134
  11 Cl:   -0.218423

-------------------------------
LOEWDIN REDUCED ORBITAL CHARGES
-------------------------------
  0 C s       :     2.856356  s :     2.856356
      pz      :     1.063064  p :     3.113624
      px      :     0.929113
      py      :     1.121448
      dz2     :     0.057219  d :     0.285823
      dxz     :     0.069836
      dyz     :     0.046871
      dx2y2   :     0.067486
      dxy     :     0.044410
      f0      :     0.004997  f :     0.034037
      f+1     :     0.004289
      f-1     :     0.004283
      f+2     :     0.004600
      f-2     :     0.006104
      f+3     :     0.004570
      f-3     :     0.005195
  1 N s       :     2.983032  s :     2.983032
      pz      :     1.292923  p :     3.724826
      px      :     1.212164
      py      :     1.219738
      dz2     :     0.041076  d :     0.169964
      dxz     :     0.028309
      dyz     :     0.022412
      dx2y2   :     0.056794
      dxy     :     0.021372
      f0      :     0.001449  f :     0.011135
      f+1     :     0.001168
      f-1     :     0.002262
      f+2     :     0.001424
      f-2     :     0.001466
      f+3     :     0.001356
      f-3     :     0.002011
  2 H s       :     0.708675  s :     0.708675
      pz      :     0.025767  p :     0.108944
      px      :     0.019513
      py      :     0.063664
  3 H s       :     0.721662  s :     0.721662
      pz      :     0.143028  p :     0.250043
      px      :     0.026067
      py      :     0.080948
  4 H s       :     0.707753  s :     0.707753
      pz      :     0.032951  p :     0.112923
      px      :     0.055965
      py      :     0.024006
  5 H s       :     0.800024  s :     0.800024
      pz      :     0.018780  p :     0.065694
      px      :     0.032791
      py      :     0.014124
  6 H s       :     0.813302  s :     0.813302
      pz      :     0.038540  p :     0.075086
      px      :     0.013917
      py      :     0.022629
  7 H s       :     0.799688  s :     0.799688
      pz      :     0.019367  p :     0.081167
      px      :     0.009920
      py      :     0.051880
  8 Pbs       :     3.683174  s :     3.683174
      pz      :     2.484215  p :     7.420622
      px      :     2.437068
      py      :     2.499339
      dz2     :     2.140310  d :    10.737505
      dxz     :     2.159827
      dyz     :     2.161014
      dx2y2   :     2.140885
      dxy     :     2.135469
      f0      :     0.050425  f :     0.289767
      f+1     :     0.041777
      f-1     :     0.034211
      f+2     :     0.047777
      f-2     :     0.034114
      f+3     :     0.043242
      f-3     :     0.038221
  9 Cls       :     5.734753  s :     5.734753
      pz      :     3.817212  p :    11.377655
      px      :     3.806598
      py      :     3.753844
      dz2     :     0.013434  d :     0.078997
      dxz     :     0.011822
      dyz     :     0.013448
      dx2y2   :     0.010690
      dxy     :     0.029603
      f0      :     0.000697  f :     0.005213
      f+1     :     0.000528
      f-1     :     0.000592
      f+2     :     0.000448
      f-2     :     0.000989
      f+3     :     0.001164
      f-3     :     0.000794
 10 Cls       :     5.643184  s :     5.643184
      pz      :     3.765774  p :    11.245966
      px      :     3.839343
      py      :     3.640848
      dz2     :     0.016694  d :     0.131096
      dxz     :     0.013059
      dyz     :     0.047995
      dx2y2   :     0.034424
      dxy     :     0.018923
      f0      :     0.001386  f :     0.009889
      f+1     :     0.000513
      f-1     :     0.001357
      f+2     :     0.002976
      f-2     :     0.001177
      f+3     :     0.001144
      f-3     :     0.001335
 11 Cls       :     5.734215  s :     5.734215
      pz      :     3.779428  p :    11.393279
      px      :     3.783715
      py      :     3.830135
      dz2     :     0.030693  d :     0.085518
      dxz     :     0.024606
      dyz     :     0.010377
      dx2y2   :     0.010503
      dxy     :     0.009339
      f0      :     0.001041  f :     0.005411
      f+1     :     0.001793
      f-1     :     0.000565
      f+2     :     0.000670
      f-2     :     0.000491
      f+3     :     0.000440
      f-3     :     0.000410


                      *****************************
                      * MAYER POPULATION ANALYSIS *
                      *****************************

  NA   - Mulliken gross atomic population
  ZA   - Total nuclear charge
  QA   - Mulliken gross atomic charge
  VA   - Mayer's total valence
  BVA  - Mayer's bonded valence
  FA   - Mayer's free valence

  ATOM       NA         ZA         QA         VA         BVA        FA
  0 C      6.2716     6.0000    -0.2716     3.7311     3.6112     0.1199
  1 N      7.2954     7.0000    -0.2954     3.3945     3.2551     0.1395
  2 H      0.7282     1.0000     0.2718     0.9289     0.9107     0.0182
  3 H      0.7205     1.0000     0.2795     1.0420     1.0217     0.0203
  4 H      0.7225     1.0000     0.2775     0.9324     0.9153     0.0171
  5 H      0.8223     1.0000     0.1777     0.9759     0.9576     0.0183
  6 H      0.8417     1.0000     0.1583     0.9761     0.9575     0.0185
  7 H      0.8364     1.0000     0.1636     1.0437     1.0216     0.0221
  8 Pb    21.1710    22.0000     0.8290     2.2146     1.8342     0.3805
  9 Cl    17.5265    17.0000    -0.5265     1.0383     0.7746     0.2638
 10 Cl    17.5186    17.0000    -0.5186     1.0394     0.7791     0.2603
 11 Cl    17.5453    17.0000    -0.5453     0.9941     0.7300     0.2641

  Mayer bond orders larger than 0.1
B(  0-C ,  1-N ) :   0.8290 B(  0-C ,  5-H ) :   0.9443 B(  0-C ,  6-H ) :   0.9599 
B(  0-C ,  7-H ) :   0.9001 B(  1-N ,  2-H ) :   0.8884 B(  1-N ,  3-H ) :   0.6957 
B(  1-N ,  4-H ) :   0.8952 B(  3-H , 10-Cl) :   0.3075 B(  7-H , 11-Cl) :   0.1271 
B(  8-Pb,  9-Cl) :   0.7534 B(  8-Pb, 10-Cl) :   0.4497 B(  8-Pb, 11-Cl) :   0.6140 



                *******************************************
                * RELAXED MP2 DENSITY POPULATION ANALYSIS *
                *******************************************

------------------------------------------------------------------------------
                           ORCA POPULATION ANALYSIS
------------------------------------------------------------------------------
Input electron density              ... PbMACl3_mp2_md_14.orca.pmp2re
BaseName (.gbw .S,...)              ... PbMACl3_mp2_md_14.orca

                    ********************************
                    * MULLIKEN POPULATION ANALYSIS *
                    ********************************

-----------------------
MULLIKEN ATOMIC CHARGES
-----------------------
   0 C :   -0.289018
   1 N :   -0.293642
   2 H :    0.271622
   3 H :    0.270309
   4 H :    0.278542
   5 H :    0.180636
   6 H :    0.162217
   7 H :    0.162947
   8 Pb:    0.769159
   9 Cl:   -0.500160
  10 Cl:   -0.493369
  11 Cl:   -0.519242
Sum of atomic charges:   -0.0000000

--------------------------------
MULLIKEN REDUCED ORBITAL CHARGES
--------------------------------
  0 C s       :     3.238084  s :     3.238084
      pz      :     1.034739  p :     2.974557
      px      :     0.842445
      py      :     1.097373
      dz2     :     0.016212  d :     0.069816
      dxz     :     0.013666
      dyz     :     0.014696
      dx2y2   :     0.014024
      dxy     :     0.011219
      f0      :     0.000790  f :     0.006562
      f+1     :     0.000958
      f-1     :     0.000517
      f+2     :     0.001416
      f-2     :     0.000964
      f+3     :     0.000841
      f-3     :     0.001076
  1 N s       :     3.406895  s :     3.406895
      pz      :     1.364396  p :     3.827805
      px      :     1.219219
      py      :     1.244190
      dz2     :     0.014327  d :     0.055741
      dxz     :     0.009008
      dyz     :     0.008571
      dx2y2   :     0.016768
      dxy     :     0.007067
      f0      :     0.000481  f :     0.003202
      f+1     :     0.000349
      f-1     :     0.000558
      f+2     :     0.000506
      f-2     :     0.000295
      f+3     :     0.000364
      f-3     :     0.000650
  2 H s       :     0.692936  s :     0.692936
      pz      :     0.008101  p :     0.035442
      px      :     0.006547
      py      :     0.020794
  3 H s       :     0.662278  s :     0.662278
      pz      :     0.036618  p :     0.067413
      px      :     0.009349
      py      :     0.021446
  4 H s       :     0.684323  s :     0.684323
      pz      :     0.010053  p :     0.037135
      px      :     0.019295
      py      :     0.007787
  5 H s       :     0.796761  s :     0.796761
      pz      :     0.006288  p :     0.022603
      px      :     0.011725
      py      :     0.004590
  6 H s       :     0.812472  s :     0.812472
      pz      :     0.013147  p :     0.025311
      px      :     0.004652
      py      :     0.007512
  7 H s       :     0.808333  s :     0.808333
      pz      :     0.007253  p :     0.028719
      px      :     0.003441
      py      :     0.018026
  8 Pbs       :     3.957114  s :     3.957114
      pz      :     2.342296  p :     7.016035
      px      :     2.336561
      py      :     2.337179
      dz2     :     2.027156  d :    10.145006
      dxz     :     2.035923
      dyz     :     2.030281
      dx2y2   :     2.030410
      dxy     :     2.021236
      f0      :     0.018421  f :     0.112686
      f+1     :     0.014597
      f-1     :     0.016390
      f+2     :     0.016707
      f-2     :     0.014479
      f+3     :     0.016558
      f-3     :     0.015533
  9 Cls       :     5.946069  s :     5.946069
      pz      :     3.861808  p :    11.492449
      px      :     3.845377
      py      :     3.785263
      dz2     :     0.010223  d :     0.057957
      dxz     :     0.009904
      dyz     :     0.011231
      dx2y2   :     0.011133
      dxy     :     0.015467
      f0      :     0.000484  f :     0.003686
      f+1     :     0.000446
      f-1     :     0.000494
      f+2     :     0.000447
      f-2     :     0.000597
      f+3     :     0.000636
      f-3     :     0.000582
 10 Cls       :     5.940496  s :     5.940496
      pz      :     3.855176  p :    11.468409
      px      :     3.901624
      py      :     3.711610
      dz2     :     0.013338  d :     0.079076
      dxz     :     0.011595
      dyz     :     0.023349
      dx2y2   :     0.018081
      dxy     :     0.012713
      f0      :     0.000684  f :     0.005388
      f+1     :     0.000456
      f-1     :     0.000879
      f+2     :     0.001206
      f-2     :     0.000673
      f+3     :     0.000711
      f-3     :     0.000780
 11 Cls       :     5.946201  s :     5.946201
      pz      :     3.804631  p :    11.509503
      px      :     3.822209
      py      :     3.882662
      dz2     :     0.016212  d :     0.059884
      dxz     :     0.014667
      dyz     :     0.010324
      dx2y2   :     0.009552
      dxy     :     0.009130
      f0      :     0.000623  f :     0.003653
      f+1     :     0.000745
      f-1     :     0.000500
      f+2     :     0.000511
      f-2     :     0.000476
      f+3     :     0.000405
      f-3     :     0.000394


                     *******************************
                     * LOEWDIN POPULATION ANALYSIS *
                     *******************************

----------------------
LOEWDIN ATOMIC CHARGES
----------------------
   0 C :   -0.299947
   1 N :    0.108239
   2 H :    0.183014
   3 H :    0.026723
   4 H :    0.180347
   5 H :    0.136013
   6 H :    0.113331
   7 H :    0.120122
   8 Pb:   -0.166377
   9 Cl:   -0.179444
  10 Cl:   -0.019705
  11 Cl:   -0.202315

-------------------------------
LOEWDIN REDUCED ORBITAL CHARGES
-------------------------------
  0 C s       :     2.858366  s :     2.858366
      pz      :     1.066849  p :     3.126270
      px      :     0.933939
      py      :     1.125482
      dz2     :     0.056454  d :     0.281507
      dxz     :     0.068608
      dyz     :     0.046496
      dx2y2   :     0.066269
      dxy     :     0.043680
      f0      :     0.004968  f :     0.033805
      f+1     :     0.004249
      f-1     :     0.004259
      f+2     :     0.004561
      f-2     :     0.006075
      f+3     :     0.004546
      f-3     :     0.005147
  1 N s       :     2.984489  s :     2.984489
      pz      :     1.292334  p :     3.725830
      px      :     1.212456
      py      :     1.221040
      dz2     :     0.041435  d :     0.170250
      dxz     :     0.028162
      dyz     :     0.022747
      dx2y2   :     0.056518
      dxy     :     0.021388
      f0      :     0.001458  f :     0.011192
      f+1     :     0.001169
      f-1     :     0.002286
      f+2     :     0.001425
      f-2     :     0.001480
      f+3     :     0.001358
      f-3     :     0.002015
  2 H s       :     0.708179  s :     0.708179
      pz      :     0.025863  p :     0.108807
      px      :     0.019608
      py      :     0.063336
  3 H s       :     0.724091  s :     0.724091
      pz      :     0.142384  p :     0.249186
      px      :     0.026187
      py      :     0.080614
  4 H s       :     0.706949  s :     0.706949
      pz      :     0.033071  p :     0.112704
      px      :     0.055580
      py      :     0.024053
  5 H s       :     0.798257  s :     0.798257
      pz      :     0.018890  p :     0.065730
      px      :     0.032524
      py      :     0.014316
  6 H s       :     0.811332  s :     0.811332
      pz      :     0.038337  p :     0.075337
      px      :     0.014154
      py      :     0.022845
  7 H s       :     0.798505  s :     0.798505
      pz      :     0.019305  p :     0.081374
      px      :     0.010143
      py      :     0.051926
  8 Pbs       :     3.689582  s :     3.689582
      pz      :     2.499182  p :     7.461409
      px      :     2.448258
      py      :     2.513970
      dz2     :     2.138414  d :    10.729453
      dxz     :     2.157332
      dyz     :     2.160409
      dx2y2   :     2.139799
      dxy     :     2.133498
      f0      :     0.049834  f :     0.285934
      f+1     :     0.041024
      f-1     :     0.033915
      f+2     :     0.047096
      f-2     :     0.033562
      f+3     :     0.042791
      f-3     :     0.037712
  9 Cls       :     5.737843  s :     5.737843
      pz      :     3.810559  p :    11.356383
      px      :     3.797334
      py      :     3.748490
      dz2     :     0.013560  d :     0.079925
      dxz     :     0.011957
      dyz     :     0.013562
      dx2y2   :     0.010789
      dxy     :     0.030058
      f0      :     0.000707  f :     0.005292
      f+1     :     0.000531
      f-1     :     0.000600
      f+2     :     0.000452
      f-2     :     0.001011
      f+3     :     0.001189
      f-3     :     0.000802
 10 Cls       :     5.646481  s :     5.646481
      pz      :     3.760696  p :    11.229866
      px      :     3.834520
      py      :     3.634649
      dz2     :     0.016920  d :     0.133372
      dxz     :     0.013186
      dyz     :     0.048870
      dx2y2   :     0.035277
      dxy     :     0.019119
      f0      :     0.001405  f :     0.009986
      f+1     :     0.000516
      f-1     :     0.001370
      f+2     :     0.003005
      f-2     :     0.001189
      f+3     :     0.001146
      f-3     :     0.001356
 11 Cls       :     5.737149  s :     5.737149
      pz      :     3.772581  p :    11.373233
      px      :     3.776373
      py      :     3.824280
      dz2     :     0.030964  d :     0.086454
      dxz     :     0.025013
      dyz     :     0.010528
      dx2y2   :     0.010567
      dxy     :     0.009382
      f0      :     0.001045  f :     0.005480
      f+1     :     0.001825
      f-1     :     0.000576
      f+2     :     0.000682
      f-2     :     0.000498
      f+3     :     0.000442
      f-3     :     0.000411


                      *****************************
                      * MAYER POPULATION ANALYSIS *
                      *****************************

  NA   - Mulliken gross atomic population
  ZA   - Total nuclear charge
  QA   - Mulliken gross atomic charge
  VA   - Mayer's total valence
  BVA  - Mayer's bonded valence
  FA   - Mayer's free valence

  ATOM       NA         ZA         QA         VA         BVA        FA
  0 C      6.2890     6.0000    -0.2890     3.7309     3.6113     0.1196
  1 N      7.2936     7.0000    -0.2936     3.4003     3.2612     0.1391
  2 H      0.7284     1.0000     0.2716     0.9288     0.9107     0.0181
  3 H      0.7297     1.0000     0.2703     1.0490     1.0288     0.0202
  4 H      0.7215     1.0000     0.2785     0.9320     0.9149     0.0171
  5 H      0.8194     1.0000     0.1806     0.9759     0.9576     0.0182
  6 H      0.8378     1.0000     0.1622     0.9742     0.9558     0.0184
  7 H      0.8371     1.0000     0.1629     1.0484     1.0264     0.0220
  8 Pb    21.2308    22.0000     0.7692     2.3129     1.9379     0.3750
  9 Cl    17.5002    17.0000    -0.5002     1.0858     0.8240     0.2619
 10 Cl    17.4934    17.0000    -0.4934     1.0901     0.8310     0.2590
 11 Cl    17.5192    17.0000    -0.5192     1.0430     0.7806     0.2624

  Mayer bond orders larger than 0.1
B(  0-C ,  1-N ) :   0.8375 B(  0-C ,  5-H ) :   0.9416 B(  0-C ,  6-H ) :   0.9556 
B(  0-C ,  7-H ) :   0.8956 B(  1-N ,  2-H ) :   0.8864 B(  1-N ,  3-H ) :   0.6904 
B(  1-N ,  4-H ) :   0.8935 B(  3-H , 10-Cl) :   0.3184 B(  7-H , 11-Cl) :   0.1346 
B(  8-Pb,  9-Cl) :   0.7957 B(  8-Pb, 10-Cl) :   0.4737 B(  8-Pb, 11-Cl) :   0.6480 



-------
TIMINGS
-------

Total time                :  724.405 sec
Integral trafo            :    3.299 sec (  0.5%)
I/O of integrals          :    0.417 sec (  0.1%)
K(i,j) Operators          :    9.810 sec (  1.4%)
T(i,j) pair energies      :    1.949 sec (  0.3%)
V-calculation             :    0.019 sec (  0.0%)
V**(-1/2)                 :    0.040 sec (  0.0%)
Gamma(ia|P)               :    9.164 sec (  1.3%)
Gamma-Trafo               :    1.319 sec (  0.2%)
D(virtual)                :    3.971 sec (  0.5%)
D(internal)               :    6.168 sec (  0.9%)
W(virtual)                :    7.860 sec (  1.1%)
W(internal)               :   14.125 sec (  1.9%)
L(virtual)                :    8.247 sec (  1.1%)
L(internal)               :    0.504 sec (  0.1%)
G(D)                      :   18.642 sec (  2.6%)
G(Z)                      :   19.777 sec (  2.7%)
Z-Vector Solution         :  471.708 sec ( 65.1%)
Z-Vector Solution         :  471.708 sec ( 65.1%)
3-Index Derivative 
+ Separable RIJ part      :    6.051 sec (  0.8%)
2-Index Derivative 
+ Separable RIJ part      :    0.043 sec (  0.0%)
Separable Gradient (COSX) :  138.360 sec ( 19.1%)


---------------------------------------
MP2 TOTAL ENERGY:    -1669.505059500 Eh
---------------------------------------

The final MP2 gradient
  0:  -0.01006514  -0.00264839  -0.00302301
  1:   0.03422869  -0.03377717  -0.06072456
  2:   0.00497276  -0.01131114  -0.00913189
  3:  -0.00303086   0.00749882   0.02867790
  4:  -0.01624620   0.00952771  -0.01544992
  5:  -0.01413815   0.00617406   0.00328750
  6:   0.00159324  -0.03183723  -0.02605091
  7:  -0.00438637   0.00126983   0.02645630
  8:   0.02883351   0.05234308   0.01254777
  9:  -0.02015662   0.01748266   0.00316352
 10:  -0.01189693  -0.01581839   0.07891359
 11:   0.01058612   0.00165325  -0.03857681

-----------------------------------
NORM OF THE MP2 GRADIENT:  0.152223
-----------------------------------

Entering the calculation of the dispersion correction...

Checking the input atom types...

Done


-------------------------------------------------------------------------------
                          DFT DISPERSION CORRECTION                            
                                                                               
                                DFTD3 V2.1  Rev 6                               
                          USING Becke-Johnson damping                          
-------------------------------------------------------------------------------
The B2PLYP functional is recognized
Active option DFTDOPT                   ...         4   

molecular C6(AA) [au] = 4865.008628 


            DFT-D V3
 parameters
 s6 scaling factor         :     0.6400 
 a1 scaling factor         :     0.3065 
 s8 scaling factor         :     0.9147 
 a2 scaling factor         :     5.0570 
 ad hoc parameters k1-k3   :    16.0000     1.3333    -4.0000 

 Edisp/kcal,au: -8.415476519665  -0.013410914050 
 E6   /kcal   :  -3.816715352 
 E8   /kcal   :  -4.598761168 
 % E8         :  54.646473757 

-------------------------   ----------------
Dispersion correction           -0.013410914
-------------------------   ----------------


-------------------------   --------------------
FINAL SINGLE POINT ENERGY     -1669.518470414294
-------------------------   --------------------


                            ***************************************
                            *     ORCA property calculations      *
                            ***************************************


  WARNING: The energy has been calculated at the MP2 level but the densities
           used in the property calculations are still SCF densities
           MP2 response densities have not been calculated 
           use %mp2 Density relaxed end
           or  %mp2 Density unrelaxed end

                                    ---------------------
                                    Active property flags
                                    ---------------------
   (+) Dipole Moment


------------------------------------------------------------------------------
                       ORCA ELECTRIC PROPERTIES CALCULATION
------------------------------------------------------------------------------

Dipole Moment Calculation                       ... on
Quadrupole Moment Calculation                   ... off
Polarizability Calculation                      ... off
GBWName                                         ... PbMACl3_mp2_md_14.orca.gbw
Electron density file                           ... PbMACl3_mp2_md_14.orca.scfp.tmp

-------------
DIPOLE MOMENT
-------------
                                X             Y             Z
Electronic contribution:    -15.55005     -66.04935     -28.86738
Nuclear contribution   :     15.81896      70.94517      29.75527
                        -----------------------------------------
Total Dipole Moment    :      0.26891       4.89581       0.88788
                        -----------------------------------------
Magnitude (a.u.)       :      4.98293
Magnitude (Debye)      :     12.66561


                         *** MP2 UNRELAXED DENSITY ***

------------------------------------------------------------------------------
                       ORCA ELECTRIC PROPERTIES CALCULATION
------------------------------------------------------------------------------

Dipole Moment Calculation                       ... on
Quadrupole Moment Calculation                   ... off
Polarizability Calculation                      ... off
GBWName                                         ... PbMACl3_mp2_md_14.orca.gbw
Electron density file                           ... PbMACl3_mp2_md_14.orca.pmp2ur

-------------
DIPOLE MOMENT
-------------
                                X             Y             Z
Electronic contribution:    -15.54800     -66.06772     -28.86804
Nuclear contribution   :     15.81896      70.94517      29.75527
                        -----------------------------------------
Total Dipole Moment    :      0.27096       4.87745       0.88722
                        -----------------------------------------
Magnitude (a.u.)       :      4.96488
Magnitude (Debye)      :     12.61973


                           *** MP2 RELAXED DENSITY ***

------------------------------------------------------------------------------
                       ORCA ELECTRIC PROPERTIES CALCULATION
------------------------------------------------------------------------------

Dipole Moment Calculation                       ... on
Quadrupole Moment Calculation                   ... off
Polarizability Calculation                      ... off
GBWName                                         ... PbMACl3_mp2_md_14.orca.gbw
Electron density file                           ... PbMACl3_mp2_md_14.orca.pmp2re

-------------
DIPOLE MOMENT
-------------
                                X             Y             Z
Electronic contribution:    -15.56362     -66.15342     -28.88637
Nuclear contribution   :     15.81896      70.94517      29.75527
                        -----------------------------------------
Total Dipole Moment    :      0.25534       4.79175       0.86889
                        -----------------------------------------
Magnitude (a.u.)       :      4.87658
Magnitude (Debye)      :     12.39528


Timings for individual modules:

Sum of individual times         ...     1306.121 sec (=  21.769 min)
GTO integral calculation        ...        6.786 sec (=   0.113 min)   0.5 %
SCF iterations                  ...      573.694 sec (=   9.562 min)  43.9 %
MP2 module                      ...      725.641 sec (=  12.094 min)  55.6 %
                             ****ORCA TERMINATED NORMALLY****
TOTAL RUN TIME: 0 days 0 hours 21 minutes 48 seconds 112 msec
