
                                 *****************
                                 * O   R   C   A *
                                 *****************

           --- An Ab Initio, DFT and Semiempirical electronic structure package ---

                  #######################################################
                  #                        -***-                        #
                  #  Department of molecular theory and spectroscopy    #
                  #              Directorship: Frank Neese              #
                  # Max Planck Institute for Chemical Energy Conversion #
                  #                  D-45470 Muelheim/Ruhr              #
                  #                       Germany                       #
                  #                                                     #
                  #                  All rights reserved                #
                  #                        -***-                        #
                  #######################################################


                         Program Version 3.0.3 - RELEASE   -


 With contributions from (in alphabetic order):
   Ute Becker             : Parallelization
   Dmytro Bykov           : SCF Hessian
   Dmitry Ganyushin       : Spin-Orbit,Spin-Spin,Magnetic field MRCI
   Andreas Hansen         : Spin unrestricted coupled pair/coupled cluster methods
   Dimitrios Liakos       : Extrapolation schemes; parallel MDCI
   Robert Izsak           : Overlap fitted RIJCOSX, COSX-SCS-MP3
   Christian Kollmar      : KDIIS, OOCD, Brueckner-CCSD(T), CCSD density
   Simone Kossmann        : Meta GGA functionals, TD-DFT gradient, OOMP2, MP2 Hessian
   Taras Petrenko         : DFT Hessian,TD-DFT gradient, ASA and ECA modules, normal mode analysis, Resonance Raman, ABS, FL, XAS/XES, NRVS
   Christoph Reimann      : Effective Core Potentials
   Michael Roemelt        : Restricted open shell CIS
   Christoph Riplinger    : Improved optimizer, TS searches, QM/MM, DLPNO-CCSD
   Barbara Sandhoefer     : DKH picture change effects
   Igor Schapiro          : Molecular dynamics
   Kantharuban Sivalingam : CASSCF convergence, NEVPT2
   Boris Wezisla          : Elementary symmetry handling
   Frank Wennmohs         : Technical directorship


 We gratefully acknowledge several colleagues who have allowed us to
 interface, adapt or use parts of their codes:
   Stefan Grimme, W. Hujo, H. Kruse, T. Risthaus : VdW corrections, initial TS optimization,
                                                   DFT functionals, gCP
   Ed Valeev                                     : LibInt (2-el integral package), F12 methods
   Garnet Chan, S. Sharma, R. Olivares           : DMRG
   Ulf Ekstrom                                   : XCFun DFT Library
   Mihaly Kallay                                 : mrcc  (arbitrary order and MRCC methods)
   Andreas Klamt, Michael Diedenhofen            : otool_cosmo (COSMO solvation model)
   Frank Weinhold                                : gennbo (NPA and NBO analysis)
   Christopher J. Cramer and Donald G. Truhlar   : smd solvation model


 Your calculation uses the libint2 library for the computation of 2-el integrals
 For citations please refer to: http://libint.valeyev.net

 This ORCA versions uses:
   CBLAS   interface :  Fast vector & matrix operations
   LAPACKE interface :  Fast linear algebra routines
   SCALAPACK package :  Parallel linear algebra routines


Your calculation utilizes the basis: Ahlrichs-TZV
Cite in your paper:
H - Kr: A. Schaefer, H. Horn and R. Ahlrichs, J. Chem. Phys. 97, 2571 (1992).

The def2-TZV basis will be loaded
Cite in your paper:
 	F. Weigend, R. Ahlrichs, Phys. Chem. Chem. Phys. 2005, 7, 3297.

Your calculation utilizes the atom-pairwise dispersion correction
with the Becke-Johnson damping scheme (D3BJ)
Cite in your paper:
S.Grimme, S.Ehrlich, L.Goerigk, J Comput Chem, (2011), 32, 1456–1465 
S.Grimme, J.Antony, S.Ehrlich and H.Krieg, J.Chem.Phys., 132, (2010), 154104 
   

================================================================================
                                        WARNINGS
                       Please study these warnings very carefully!
================================================================================

WARNING: The RI method has been chosen with no auxiliary basis (AUX or GTOAUX in BASIS block)
        Standard TZV/J expansion basis used (GTOAUX=TZV_J)

Now building the actual basis set
cite the ECPs for Pb [SD(60,MDF)] as follows:
  B. Metz, H. Stoll, M. Dolg, J. Chem. Phys. 113, 2563 (2000).

ECP parameters for Pb [SD(60,MDF)] have been obtained from:
  pseudopotential library of the Stuttgart/Cologne group
  http://www.theochem.uni-stuttgart.de/pseudopotentials/

cite the ECP basis sets for Pb [DEF2-TZVP] as follows:
  F. Weigend, R. Ahlrichs; Phys. Chem. Chem. Phys. 7, 3297(2005).

ECP basis sets for Pb [DEF2-TZVP] have been obtained from:
  Turbomole basis set library
  ftp://ftp.chemie.uni-karlsruhe.de/pub/basen/



INFO   : the flag for use of LIBINT has been found!

================================================================================
                                       INPUT FILE
================================================================================
NAME = PbCl6NH3CH3-2_mp2_sp_2.orca
|  1> ! RIJCOSX RI-B2PLYP D3BJ def2-TZVP ECP{def2-TZVP} TIGHTSCF Grid5 FinalGrid6 MORead
|  2> %method
|  3>  RunTyp Gradient
|  4>  end
|  5> %maxcore 1000
|  6> %moinp "previous.gbw"
|  7> *xyz -2 1
|  8> C 2.821971 3.493173 2.716929 
|  9> N 2.031893 2.485380 2.005967 
| 10> H 3.493737 3.003675 3.431461 
| 11> H 2.156449 4.174155 3.259759 
| 12> H 3.419280 4.070497 2.001994 
| 13> H 1.424368 1.881241 2.639320 
| 14> H 2.617127 1.787701 1.451958 
| 15> H 1.353302 2.890520 1.291746 
| 16> Pb 0.081254 -0.034771 0.238760 
| 17> Cl 3.121317 0.245915 0.277306 
| 18> Cl -0.009953 3.026775 -0.127725 
| 19> Cl 0.140899 0.515531 3.240287 
| 20> Cl -3.006685 -0.292563 0.175673 
| 21> Cl 0.044561 -0.517572 -2.855436 
| 22> Cl 0.202499 -3.098124 0.532653 
| 23> N -1.884966 -2.527607 -1.578982 
| 24> C -2.664881 -3.549172 -2.281400 
| 25> H -2.474954 -1.829497 -1.031708 
| 26> H -1.279571 -1.925402 -2.215561 
| 27> H -3.259633 -4.123288 -1.561779 
| 28> H -1.991792 -4.230944 -2.813775 
| 29> H -3.338231 -3.073756 -3.003955 
| 30> H -1.204879 -2.923566 -0.859634 
| 31> *
| 32> 
| 33>                          ****END OF INPUT****
================================================================================

                     *******************************
                     * Energy+Gradient Calculation *
                     *******************************

---------------------------------
CARTESIAN COORDINATES (ANGSTROEM)
---------------------------------
  C      2.821971    3.493173    2.716929
  N      2.031893    2.485380    2.005967
  H      3.493737    3.003675    3.431461
  H      2.156449    4.174155    3.259759
  H      3.419280    4.070497    2.001994
  H      1.424368    1.881241    2.639320
  H      2.617127    1.787701    1.451958
  H      1.353302    2.890520    1.291746
  Pb     0.081254   -0.034771    0.238760
  Cl     3.121317    0.245915    0.277306
  Cl    -0.009953    3.026775   -0.127725
  Cl     0.140899    0.515531    3.240287
  Cl    -3.006685   -0.292563    0.175673
  Cl     0.044561   -0.517572   -2.855436
  Cl     0.202499   -3.098124    0.532653
  N     -1.884966   -2.527607   -1.578982
  C     -2.664881   -3.549172   -2.281400
  H     -2.474954   -1.829497   -1.031708
  H     -1.279571   -1.925402   -2.215561
  H     -3.259633   -4.123288   -1.561779
  H     -1.991792   -4.230944   -2.813775
  H     -3.338231   -3.073756   -3.003955
  H     -1.204879   -2.923566   -0.859634

----------------------------
CARTESIAN COORDINATES (A.U.)
----------------------------
  NO LB      ZA    FRAG    MASS        X           Y           Z
   0 C     6.0000    0    12.011          5.332752347867888          6.601140308408101          5.134251735308532
   1 N     7.0000    0    14.007          3.839721303431654          4.696687538725200          3.790728263683611
   2 H     1.0000    0     1.008          6.602206113947632          5.676123145305915          6.484521529231552
   3 H     1.0000    0     1.008          4.075098031768349          7.888009790538062          6.160051772585005
   4 H     1.0000    0     1.008          6.461502775194258          7.692124558948052          3.783220381753542
   5 H     1.0000    0     1.008          2.691665433921146          3.555030281904149          4.987591979781038
   6 H     1.0000    0     1.008          4.945653287690924          3.378265299337155          2.743802977956033
   7 H     1.0000    0     1.008          2.557370156487898          5.462291184622056          2.441046174588241
   8 Pb   22.0000*   0   207.200  0.153547807285637  -0.065707667402576  0.451191011735038
   9 Cl   17.0000    0    35.453          5.898434307152679          0.464712002223245          0.524032395293167
  10 Cl   17.0000    0    35.453         -0.018808444210918          5.719775818999497         -0.241365270455092
  11 Cl   17.0000    0    35.453          0.266260522543370          0.974212403546557          6.123255025305291
  12 Cl   17.0000    0    35.453         -5.681811220969019         -0.552863946918403          0.331973859124348
  13 Cl   17.0000    0    35.453          0.084208086253665         -0.978069334585890         -5.395992032939564
  14 Cl   17.0000    0    35.453          0.382667652392920         -5.854605888928644          1.006568294411557
  15 N     7.0000    0    14.007         -3.562069511753006         -4.776485004182294         -2.983843550391246
  16 C     6.0000    0    12.011         -5.035895269490199         -6.706963082181557         -4.311221201927943
  17 H     1.0000    0     1.008         -4.676985254052937         -3.457248292830528         -1.949645570175627
  18 H     1.0000    0     1.008         -2.418038758907750         -3.638482477704246         -4.186803522996702
  19 H     1.0000    0     1.008         -6.159813667092132         -7.791885091283890         -2.951334591709398
  20 H     1.0000    0     1.008         -3.763941395735278         -7.995325447957316         -5.317264152474270
  21 H     1.0000    0     1.008         -6.308342361766074         -5.808557042497251         -5.676652268623413
  22 H     1.0000    0     1.008         -2.276891334512904         -5.524739074443619         -1.624472835407261
* core charge reduced due to ECP

--------------------------------
INTERNAL COORDINATES (ANGSTROEM)
--------------------------------
 C      0   0   0   0.000000     0.000     0.000
 N      1   0   0   1.464697     0.000     0.000
 H      1   2   0   1.096099   109.861     0.000
 H      1   2   3   1.096048   109.899   239.985
 H      1   2   3   1.095999   109.864   119.972
 H      2   1   3   1.065461   114.153    59.908
 H      2   1   3   1.065918   113.984   299.878
 H      2   1   3   1.065240   114.041   179.989
 Pb     7   2   1   3.350210    97.394   179.834
 Cl     7   2   1   2.002778   161.250   179.533
 Cl     8   2   1   1.972797   161.604   177.414
 Cl     6   2   1   1.968151   161.228   178.976
 Cl     9   7   2   3.099323   143.781     1.217
 Cl     9   7   2   3.131851   116.776   128.405
 Cl     9   7   2   3.079806   118.472   229.883
 N     15   9   7   3.023574    73.650   196.907
 C     16  15   9   1.464668   124.817   180.565
 H     16  15   9   1.065341    98.466   307.908
 H     16  15   9   1.065076    97.567    53.935
 H     17  16  15   1.095990   109.842    60.817
 H     17  16  15   1.096031   109.864   300.866
 H     17  16  15   1.096132   109.921   180.827
 H     16  15   9   1.066191    10.993   183.896

---------------------------
INTERNAL COORDINATES (A.U.)
---------------------------
 C      0   0   0   0.000000     0.000     0.000
 N      1   0   0   2.767876     0.000     0.000
 H      1   2   0   2.071328   109.861     0.000
 H      1   2   3   2.071230   109.899   239.985
 H      1   2   3   2.071137   109.864   119.972
 H      2   1   3   2.013429   114.153    59.908
 H      2   1   3   2.014293   113.984   299.878
 H      2   1   3   2.013011   114.041   179.989
 Pb     7   2   1   6.330979    97.394   179.834
 Cl     7   2   1   3.784702   161.250   179.533
 Cl     8   2   1   3.728046   161.604   177.414
 Cl     6   2   1   3.719266   161.228   178.976
 Cl     9   7   2   5.856872   143.781     1.217
 Cl     9   7   2   5.918341   116.776   128.405
 Cl     9   7   2   5.819990   118.472   229.883
 N     15   9   7   5.713728    73.650   196.907
 C     16  15   9   2.767822   124.817   180.565
 H     16  15   9   2.013203    98.466   307.908
 H     16  15   9   2.012702    97.567    53.935
 H     17  16  15   2.071120   109.842    60.817
 H     17  16  15   2.071199   109.864   300.866
 H     17  16  15   2.071390   109.921   180.827
 H     16  15   9   2.014809    10.993   183.896

---------------------
BASIS SET INFORMATION
---------------------
There are 5 groups of distinct atoms

 Group   1 Type C   : 11s6p2d1f contracted to 5s3p2d1f pattern {62111/411/11/1}
 Group   2 Type N   : 11s6p2d1f contracted to 5s3p2d1f pattern {62111/411/11/1}
 Group   3 Type H   : 5s1p contracted to 3s1p pattern {311/1}
 Group   4 Type Pb  : 10s9p8d2f contracted to 6s5p3d2f pattern {421111/33111/611/11}
 Group   5 Type Cl  : 14s9p3d1f contracted to 5s5p2d1f pattern {73211/51111/21/1}

Atom   0C    basis set group =>   1
Atom   1N    basis set group =>   2
Atom   2H    basis set group =>   3
Atom   3H    basis set group =>   3
Atom   4H    basis set group =>   3
Atom   5H    basis set group =>   3
Atom   6H    basis set group =>   3
Atom   7H    basis set group =>   3
Atom   8Pb   basis set group =>   4
Atom   9Cl   basis set group =>   5
Atom  10Cl   basis set group =>   5
Atom  11Cl   basis set group =>   5
Atom  12Cl   basis set group =>   5
Atom  13Cl   basis set group =>   5
Atom  14Cl   basis set group =>   5
Atom  15N    basis set group =>   2
Atom  16C    basis set group =>   1
Atom  17H    basis set group =>   3
Atom  18H    basis set group =>   3
Atom  19H    basis set group =>   3
Atom  20H    basis set group =>   3
Atom  21H    basis set group =>   3
Atom  22H    basis set group =>   3
-------------------------------
AUXILIARY BASIS SET INFORMATION
-------------------------------
There are 5 groups of distinct atoms

 Group   1 Type C   : 12s5p4d2f1g contracted to 6s4p3d1f1g pattern {711111/2111/211/2/1}
 Group   2 Type N   : 12s5p4d2f1g contracted to 6s4p3d1f1g pattern {711111/2111/211/2/1}
 Group   3 Type H   : 5s2p1d contracted to 3s1p1d pattern {311/2/1}
 Group   4 Type Pb  : 31s12p8d6f3g contracted to 31s12p8d6f3g pattern {1111111111111111111111111111111/111111111111/11111111/111111/111}
 Group   5 Type Cl  : 14s5p5d2f1g contracted to 8s4p3d1f1g pattern {71111111/2111/311/2/1}

Atom   0C    basis set group =>   1
Atom   1N    basis set group =>   2
Atom   2H    basis set group =>   3
Atom   3H    basis set group =>   3
Atom   4H    basis set group =>   3
Atom   5H    basis set group =>   3
Atom   6H    basis set group =>   3
Atom   7H    basis set group =>   3
Atom   8Pb   basis set group =>   4
Atom   9Cl   basis set group =>   5
Atom  10Cl   basis set group =>   5
Atom  11Cl   basis set group =>   5
Atom  12Cl   basis set group =>   5
Atom  13Cl   basis set group =>   5
Atom  14Cl   basis set group =>   5
Atom  15N    basis set group =>   2
Atom  16C    basis set group =>   1
Atom  17H    basis set group =>   3
Atom  18H    basis set group =>   3
Atom  19H    basis set group =>   3
Atom  20H    basis set group =>   3
Atom  21H    basis set group =>   3
Atom  22H    basis set group =>   3

-------------------------
ECP PARAMETER INFORMATION
-------------------------

 Group 1, Type Pb ECP SD(60,MDF) (replacing 60 core electrons, lmax=5)

Atom   8Pb   ECP group =>   1


------------------------------------------------------------------------------
                           ORCA GTO INTEGRAL CALCULATION
                           -- RI-GTO INTEGRALS CHOSEN --
------------------------------------------------------------------------------

                         BASIS SET STATISTICS AND STARTUP INFO

Gaussian basis set:
 # of primitive gaussian shells          ...  343
 # of primitive gaussian functions       ...  749
 # of contracted shells                  ...  186
 # of contracted basis functions         ...  468
 Highest angular momentum                ...    3
 Maximum contraction depth               ...    7
Auxiliary gaussian basis set:
 # of primitive gaussian shells          ...  414
 # of primitive gaussian functions       ... 1110
 # of contracted shells                  ...  282
 # of contracted aux-basis functions     ...  810
 Highest angular momentum                ...    4
 Maximum contraction depth               ...    7
Ratio of auxiliary to basis functions    ...  1.73
Integral package used                  ... LIBINT
 One Electron integrals                  
   ECP integrals                         ... done
 Ordering auxiliary basis shells         ... done
 Integral threshhold             Thresh  ...  2.500e-11
 Primitive cut-off               TCut    ...  2.500e-12
 Pre-screening matrix                    ... done
 Shell pair data                         ... 
 Ordering of the shell pairs             ... done (   0.002 sec) 11361 of 17391 pairs
 Determination of significant pairs      ... done (   0.000 sec)
 Creation of shell pair data             ... done (   0.004 sec)
 Storage of shell pair data              ... done (   0.003 sec)
 Shell pair data done in (   0.009 sec)
 Computing two index integrals           ... done
 Cholesky decomposition of the V-matrix  ... done


Timings:
 Total evaluation time                   ...   1.300 sec (  0.022 min)
 One electron matrix time                ...   0.744 sec (  0.012 min) = 57.2%
 Schwartz matrix evaluation time         ...   0.468 sec (  0.008 min) = 36.0%
 Two index repulsion integral time       ...   0.027 sec (  0.000 min) =  2.1%
 Cholesky decomposition of V             ...   0.026 sec (  0.000 min) =  2.0%
 Three index repulsion integral time     ...   0.000 sec (  0.000 min) =  0.0%

-------------------------------------------------------------------------------
                                 ORCA SCF
-------------------------------------------------------------------------------

------------
SCF SETTINGS
------------
Hamiltonian:
 Density Functional     Method          .... DFT(GTOs)
 Exchange Functional    Exchange        .... B88
   X-Alpha parameter    XAlpha          ....  0.666667
   Becke's b parameter  XBeta           ....  0.004200
 Correlation Functional Correlation     .... LYP
 LDA part of GGA corr.  LDAOpt          .... VWN-3
 Gradients option       PostSCFGGA      .... off
 Hybrid DFT is turned on
   Fraction HF Exchange ScalHFX         ....  0.530000
   Scaling of DF-GGA-X  ScalDFX         ....  0.470000
   Scaling of DF-GGA-C  ScalDFC         ....  0.730000
   Scaling of DF-LDA-C  ScalLDAC        ....  0.730000
   Perturbative correction              ....  0.270000
 RI-approximation to the Coulomb term is turned on
   Number of auxiliary basis functions  .... 810
   RIJ-COSX (HFX calculated with COS-X)).... on


General Settings:
 Integral files         IntName         .... PbCl6NH3CH3-2_mp2_sp_2.orca
 Hartree-Fock type      HFTyp           .... RHF
 Total Charge           Charge          ....   -2
 Multiplicity           Mult            ....    1
 Number of Electrons    NEL             ....  164
 Basis Dimension        Dim             ....  468
 Nuclear Repulsion      ENuc            ....   1559.3845199392 Eh

Convergence Acceleration:
 DIIS                   CNVDIIS         .... on
   Start iteration      DIISMaxIt       ....    12
   Startup error        DIISStart       ....  0.200000
   # of expansion vecs  DIISMaxEq       ....     5
   Bias factor          DIISBfac        ....   1.050
   Max. coefficient     DIISMaxC        ....  10.000
 Newton-Raphson         CNVNR           .... off
 SOSCF                  CNVSOSCF        .... on
   Start iteration      SOSCFMaxIt      ....   150
   Startup grad/error   SOSCFStart      ....  0.003300
 Level Shifting         CNVShift        .... on
   Level shift para.    LevelShift      ....    0.2500
   Turn off err/grad.   ShiftErr        ....    0.0010
 Zerner damping         CNVZerner       .... off
 Static damping         CNVDamp         .... on
   Fraction old density DampFac         ....    0.7000
   Max. Damping (<1)    DampMax         ....    0.9800
   Min. Damping (>=0)   DampMin         ....    0.0000
   Turn off err/grad.   DampErr         ....    0.1000
 Fernandez-Rico         CNVRico         .... off

SCF Procedure:
 Maximum # iterations   MaxIter         ....   125
 SCF integral mode      SCFMode         .... Direct
   Integral package                     .... LIBINT
 Reset frequeny         DirectResetFreq ....    20
 Integral Threshold     Thresh          ....  2.500e-11 Eh
 Primitive CutOff       TCut            ....  2.500e-12 Eh

Convergence Tolerance:
 Convergence Check Mode ConvCheckMode   .... Total+1el-Energy
 Energy Change          TolE            ....  1.000e-08 Eh
 1-El. energy change                    ....  1.000e-05 Eh
 Orbital Gradient       TolG            ....  1.000e-05
 Orbital Rotation angle TolX            ....  1.000e-05
 DIIS Error             TolErr          ....  5.000e-07


Diagonalization of the overlap matrix:
Smallest eigenvalue                        ... 1.085e-03
Time for diagonalization                   ...    0.078 sec
Threshold for overlap eigenvalues          ... 1.000e-08
Number of eigenvalues below threshold      ... 0
Time for construction of square roots      ...    0.031 sec
Total time needed                          ...    0.110 sec

---------------------
INITIAL GUESS: MOREAD
---------------------
Guess MOs are being read from file: previous.gbw
Input geometry compatible with but different from current geometry
Input basis set matches current basis set (good)
MOs were renormalized
MOs were reorthogonalized (Schmidt)
                      ------------------
                      INITIAL GUESS DONE (   0.8 sec)
                      ------------------
-------------------
DFT GRID GENERATION
-------------------

General Integration Accuracy     IntAcc      ...  5.010
Radial Grid Type                 RadialGrid  ... Gauss-Chebyshev
Angular Grid (max. acc.)         AngularGrid ... Lebedev-434
Angular grid pruning method      GridPruning ... 3 (G Style)
Weight generation scheme         WeightScheme... Becke
Basis function cutoff            BFCut       ...    1.0000e-11
Integration weight cutoff        WCut        ...    1.0000e-14
Grids for H and He will be reduced by one unit

# of grid points (after initial pruning)     ... 212974 (   0.1 sec)
# of grid points (after weights+screening)   ... 195999 (   1.1 sec)
nearest neighbour list constructed           ...    0.0 sec
Grid point re-assignment to atoms done       ...    0.1 sec
Grid point division into batches done        ...    1.6 sec
Reduced shell lists constructed in    8.0 sec

Total number of grid points                  ...   195999
Total number of batches                      ...     3075
Average number of points per batch           ...       63
Average number of grid points per atom       ...     8522
Average number of shells per batch           ...    68.18 (36.66%)
Average number of basis functions per batch  ...   172.65 (36.89%)
Average number of large shells per batch     ...    46.13 (67.66%)
Average number of large basis fcns per batch ...   115.57 (66.94%)
Maximum spatial batch extension              ...  30.33, 27.41, 30.33 au
Average spatial batch extension              ...   2.10,  2.07,  2.09 au

Time for grid setup =    9.235 sec

--------------------
COSX GRID GENERATION
--------------------

General Integration Accuracy     IntAcc      ...  3.340
Radial Grid Type                 RadialGrid  ... Gauss-Chebyshev
Angular Grid (max. acc.)         AngularGrid ... Lebedev-50
Angular grid pruning method      GridPruning ... 3 (G Style)
Weight generation scheme         WeightScheme... Becke
Basis function cutoff            BFCut       ...    1.0000e-11
Integration weight cutoff        WCut        ...    1.0000e-14
Grids for H and He will be reduced by one unit

# of grid points (after initial pruning)     ...  11762 (   0.0 sec)
# of grid points (after weights+screening)   ...  10912 (   0.1 sec)
nearest neighbour list constructed           ...    0.0 sec
Grid point re-assignment to atoms done       ...    0.0 sec
Grid point division into batches done        ...    0.0 sec
Reduced shell lists constructed in    0.4 sec

Total number of grid points                  ...    10912
Total number of batches                      ...      185
Average number of points per batch           ...       58
Average number of grid points per atom       ...      474
Average number of shells per batch           ...    86.81 (46.67%)
Average number of basis functions per batch  ...   224.74 (48.02%)
Average number of large shells per batch     ...    59.42 (68.45%)
Average number of large basis fcns per batch ...   151.13 (67.25%)
Maximum spatial batch extension              ...  24.58, 20.80, 23.06 au
Average spatial batch extension              ...   5.49,  5.15,  5.21 au

Overlap Fitting                  UseSFitting ... on
Constructing numerical overlap ... done (      0.2 sec)
Inverting numerical overlap    ... done (      0.0 sec)
Obtaining analytic overlap     ... done (      0.0 sec)
Final contraction and storage  ... done (      0.0 sec)


General Integration Accuracy     IntAcc      ...  3.670
Radial Grid Type                 RadialGrid  ... Gauss-Chebyshev
Angular Grid (max. acc.)         AngularGrid ... Lebedev-50
Angular grid pruning method      GridPruning ... 3 (G Style)
Weight generation scheme         WeightScheme... Becke
Basis function cutoff            BFCut       ...    1.0000e-11
Integration weight cutoff        WCut        ...    1.0000e-14
Grids for H and He will be reduced by one unit

# of grid points (after initial pruning)     ...  14690 (   0.0 sec)
# of grid points (after weights+screening)   ...  13601 (   0.1 sec)
nearest neighbour list constructed           ...    0.0 sec
Grid point re-assignment to atoms done       ...    0.0 sec
Grid point division into batches done        ...    0.0 sec
Reduced shell lists constructed in    0.5 sec

Total number of grid points                  ...    13601
Total number of batches                      ...      222
Average number of points per batch           ...       61
Average number of grid points per atom       ...      591
Average number of shells per batch           ...    84.78 (45.58%)
Average number of basis functions per batch  ...   219.01 (46.80%)
Average number of large shells per batch     ...    57.70 (68.05%)
Average number of large basis fcns per batch ...   146.12 (66.72%)
Maximum spatial batch extension              ...  25.30, 22.25, 23.94 au
Average spatial batch extension              ...   5.04,  4.77,  4.94 au

Overlap Fitting                  UseSFitting ... on
Constructing numerical overlap ... done (      0.3 sec)
Inverting numerical overlap    ... done (      0.0 sec)
Obtaining analytic overlap     ... done (      0.0 sec)
Final contraction and storage  ... done (      0.0 sec)


General Integration Accuracy     IntAcc      ...  4.010
Radial Grid Type                 RadialGrid  ... Gauss-Chebyshev
Angular Grid (max. acc.)         AngularGrid ... Lebedev-110
Angular grid pruning method      GridPruning ... 3 (G Style)
Weight generation scheme         WeightScheme... Becke
Basis function cutoff            BFCut       ...    1.0000e-11
Integration weight cutoff        WCut        ...    1.0000e-14
Grids for H and He will be reduced by one unit

# of grid points (after initial pruning)     ...  27082 (   0.0 sec)
# of grid points (after weights+screening)   ...  25295 (   0.1 sec)
nearest neighbour list constructed           ...    0.0 sec
Grid point re-assignment to atoms done       ...    0.0 sec
Grid point division into batches done        ...    0.0 sec
Reduced shell lists constructed in    0.9 sec

Total number of grid points                  ...    25295
Total number of batches                      ...      407
Average number of points per batch           ...       62
Average number of grid points per atom       ...     1100
Average number of shells per batch           ...    80.27 (43.16%)
Average number of basis functions per batch  ...   206.48 (44.12%)
Average number of large shells per batch     ...    54.67 (68.11%)
Average number of large basis fcns per batch ...   138.69 (67.17%)
Maximum spatial batch extension              ...  28.52, 26.39, 26.52 au
Average spatial batch extension              ...   4.28,  4.04,  4.10 au

Overlap Fitting                  UseSFitting ... on
Constructing numerical overlap ... done (      0.5 sec)
Inverting numerical overlap    ... done (      0.0 sec)
Obtaining analytic overlap     ... done (      0.0 sec)
Final contraction and storage  ... done (      0.0 sec)

Time for X-Grid setup             =    3.426 sec
--------------
SCF ITERATIONS
--------------
ITER       Energy         Delta-E        Max-DP      RMS-DP      [F,P]     Damp
               ***  Starting incremental Fock matrix formation  ***
  0  -3145.5420780762   0.000000000000 0.00110187  0.00001965  0.0231448 0.7000
                      *** Initiating the SOSCF procedure ***
                      *** Re-Reading the Fockian *** 
                      *** Removing any level shift *** 
ITER      Energy       Delta-E        Grad      Rot      Max-DP    RMS-DP
  1  -3145.54215912  -0.0000810456  0.000659  0.000659  0.003555  0.000064
               *** Restarting incremental Fock matrix formation ***
  2  -3145.54237458  -0.0002154581  0.000555  0.001836  0.001450  0.000026
  3  -3145.54239147  -0.0000168936  0.000368  0.000598  0.000729  0.000013
  4  -3145.54239779  -0.0000063129  0.000067  0.000114  0.000274  0.000003
  5  -3145.54239803  -0.0000002400  0.000019  0.000030  0.000084  0.000001
  6  -3145.54239800   0.0000000224  0.000005  0.000010  0.000023  0.000000
  7  -3145.54239801  -0.0000000081  0.000004  0.000009  0.000012  0.000000
                  ***Gradient check signals convergence***
              ***Rediagonalizing the Fockian in SOSCF/NRSCF***

               *****************************************************
               *                     SUCCESS                       *
               *           SCF CONVERGED AFTER   8 CYCLES          *
               *****************************************************

Old exchange energy                            =   -110.586032684 Eh
New exchange energy                            =   -110.594266814 Eh
Exchange energy change after final integration =     -0.008234130 Eh
Total energy after final integration           =  -3145.550632140 Eh
Final COS-X integration done in                =    68.588 sec

----------------
TOTAL SCF ENERGY
----------------

Total Energy       :        -3145.55063214 Eh          -85594.78426 eV

Components:
Nuclear Repulsion  :         1559.38451994 Eh           42433.01004 eV
Electronic Energy  :        -4704.93515208 Eh         -128027.79430 eV

One Electron Energy:        -7567.54206247 Eh         -205923.28846 eV
Two Electron Energy:         2862.60691039 Eh           77895.49416 eV

Virial components:
Potential Energy   :        -6157.91853868 Eh         -167565.48230 eV
Kinetic Energy     :         3012.36790654 Eh           81970.69805 eV
Virial Ratio       :            2.04421197


DFT components:
N(Alpha)           :       81.999969836796 electrons
N(Beta)            :       81.999969836796 electrons
N(Total)           :      163.999939673593 electrons
E(X)               :      -98.138985626410 Eh       
E(C)               :       -4.635301511454 Eh       
E(XC)              :     -102.774287137864 Eh       

---------------
SCF CONVERGENCE
---------------

  Last Energy change         ...    1.8795e-09  Tolerance :   1.0000e-08
  Last MAX-Density change    ...    1.6676e-13  Tolerance :   1.0000e-07
  Last RMS-Density change    ...    1.0646e-15  Tolerance :   5.0000e-09
  Last Orbital Gradient      ...    1.2480e-06  Tolerance :   1.0000e-05
  Last Orbital Rotation      ...    1.6470e-06  Tolerance :   1.0000e-05

             **** THE GBW FILE WAS UPDATED (PbCl6NH3CH3-2_mp2_sp_2.orca.gbw) ****
             **** DENSITY FILE WAS UPDATED (PbCl6NH3CH3-2_mp2_sp_2.orca.scfp.tmp) ****
             **** ENERGY FILE WAS UPDATED (PbCl6NH3CH3-2_mp2_sp_2.orca.en.tmp) ****
----------------
ORBITAL ENERGIES
----------------

  NO   OCC          E(Eh)            E(eV) 
   0   2.0000    -102.584557     -2791.4677 
   1   2.0000    -102.582477     -2791.4111 
   2   2.0000    -102.582028     -2791.3989 
   3   2.0000    -102.580638     -2791.3611 
   4   2.0000    -102.579424     -2791.3280 
   5   2.0000    -102.576409     -2791.2460 
   6   2.0000     -14.694738      -399.8642 
   7   2.0000     -14.689963      -399.7342 
   8   2.0000     -10.492011      -285.5021 
   9   2.0000     -10.490499      -285.4610 
  10   2.0000      -9.591320      -260.9931 
  11   2.0000      -9.589108      -260.9329 
  12   2.0000      -9.588644      -260.9203 
  13   2.0000      -9.587318      -260.8842 
  14   2.0000      -9.585905      -260.8457 
  15   2.0000      -9.582788      -260.7609 
  16   2.0000      -7.227733      -196.6766 
  17   2.0000      -7.227486      -196.6699 
  18   2.0000      -7.226780      -196.6507 
  19   2.0000      -7.225498      -196.6158 
  20   2.0000      -7.225314      -196.6108 
  21   2.0000      -7.225069      -196.6041 
  22   2.0000      -7.224811      -196.5971 
  23   2.0000      -7.224587      -196.5910 
  24   2.0000      -7.224119      -196.5783 
  25   2.0000      -7.223719      -196.5674 
  26   2.0000      -7.223509      -196.5617 
  27   2.0000      -7.222790      -196.5421 
  28   2.0000      -7.222298      -196.5287 
  29   2.0000      -7.222112      -196.5236 
  30   2.0000      -7.221418      -196.5048 
  31   2.0000      -7.219185      -196.4440 
  32   2.0000      -7.219010      -196.4393 
  33   2.0000      -7.218314      -196.4203 
  34   2.0000      -5.562182      -151.3547 
  35   2.0000      -3.332755       -90.6889 
  36   2.0000      -3.332143       -90.6722 
  37   2.0000      -3.331990       -90.6680 
  38   2.0000      -0.881613       -23.9899 
  39   2.0000      -0.879069       -23.9207 
  40   2.0000      -0.721107       -19.6223 
  41   2.0000      -0.720848       -19.6153 
  42   2.0000      -0.719934       -19.5904 
  43   2.0000      -0.718528       -19.5521 
  44   2.0000      -0.718463       -19.5504 
  45   2.0000      -0.634174       -17.2567 
  46   2.0000      -0.633741       -17.2450 
  47   2.0000      -0.602686       -16.3999 
  48   2.0000      -0.600755       -16.3474 
  49   2.0000      -0.598332       -16.2814 
  50   2.0000      -0.596269       -16.2253 
  51   2.0000      -0.595003       -16.1908 
  52   2.0000      -0.591025       -16.0826 
  53   2.0000      -0.412039       -11.2121 
  54   2.0000      -0.411979       -11.2105 
  55   2.0000      -0.410128       -11.1601 
  56   2.0000      -0.409896       -11.1538 
  57   2.0000      -0.364288        -9.9128 
  58   2.0000      -0.362229        -9.8567 
  59   2.0000      -0.291410        -7.9297 
  60   2.0000      -0.291234        -7.9249 
  61   2.0000      -0.290704        -7.9104 
  62   2.0000      -0.290285        -7.8991 
  63   2.0000      -0.290019        -7.8918 
  64   2.0000      -0.114328        -3.1110 
  65   2.0000      -0.109176        -2.9708 
  66   2.0000      -0.108798        -2.9606 
  67   2.0000      -0.097438        -2.6514 
  68   2.0000      -0.089167        -2.4263 
  69   2.0000      -0.086726        -2.3599 
  70   2.0000      -0.086139        -2.3440 
  71   2.0000      -0.082092        -2.2338 
  72   2.0000      -0.081996        -2.2312 
  73   2.0000      -0.081473        -2.2170 
  74   2.0000      -0.080884        -2.2010 
  75   2.0000      -0.079251        -2.1565 
  76   2.0000      -0.078006        -2.1227 
  77   2.0000      -0.076496        -2.0815 
  78   2.0000      -0.076105        -2.0709 
  79   2.0000      -0.074788        -2.0351 
  80   2.0000      -0.069817        -1.8998 
  81   2.0000      -0.044213        -1.2031 
  82   0.0000       0.240777         6.5519 
  83   0.0000       0.241135         6.5616 
  84   0.0000       0.258081         7.0228 
  85   0.0000       0.260367         7.0849 
  86   0.0000       0.261965         7.1284 
  87   0.0000       0.305962         8.3257 
  88   0.0000       0.307027         8.3546 
  89   0.0000       0.307506         8.3677 
  90   0.0000       0.307598         8.3702 
  91   0.0000       0.307977         8.3805 
  92   0.0000       0.309256         8.4153 
  93   0.0000       0.376091        10.2340 
  94   0.0000       0.377304        10.2670 
  95   0.0000       0.378906        10.3106 
  96   0.0000       0.380096        10.3429 
  97   0.0000       0.412980        11.2378 
  98   0.0000       0.413825        11.2607 
  99   0.0000       0.414356        11.2752 
 100   0.0000       0.414612        11.2822 
 101   0.0000       0.443299        12.0628 
 102   0.0000       0.458258        12.4698 
 103   0.0000       0.492706        13.4072 
 104   0.0000       0.492983        13.4148 
 105   0.0000       0.493357        13.4249 
 106   0.0000       0.494414        13.4537 
 107   0.0000       0.505056        13.7433 
 108   0.0000       0.506658        13.7869 
 109   0.0000       0.518408        14.1066 
 110   0.0000       0.525413        14.2972 
 111   0.0000       0.525796        14.3076 
 112   0.0000       0.543163        14.7802 
 113   0.0000       0.550411        14.9774 
 114   0.0000       0.550759        14.9869 
 115   0.0000       0.589571        16.0430 
 116   0.0000       0.590011        16.0550 
 117   0.0000       0.592129        16.1127 
 118   0.0000       0.602896        16.4056 
 119   0.0000       0.616768        16.7831 
 120   0.0000       0.636595        17.3226 
 121   0.0000       0.637059        17.3353 
 122   0.0000       0.639024        17.3887 
 123   0.0000       0.661858        18.0101 
 124   0.0000       0.667569        18.1655 
 125   0.0000       0.668216        18.1831 
 126   0.0000       0.679063        18.4783 
 127   0.0000       0.682168        18.5627 
 128   0.0000       0.682720        18.5777 
 129   0.0000       0.683485        18.5986 
 130   0.0000       0.693754        18.8780 
 131   0.0000       0.694123        18.8881 
 132   0.0000       0.702125        19.1058 
 133   0.0000       0.711509        19.3611 
 134   0.0000       0.713092        19.4042 
 135   0.0000       0.726442        19.7675 
 136   0.0000       0.727580        19.7985 
 137   0.0000       0.735250        20.0072 
 138   0.0000       0.737244        20.0614 
 139   0.0000       0.742259        20.1979 
 140   0.0000       0.742685        20.2095 
 141   0.0000       0.747090        20.3294 
 142   0.0000       0.747398        20.3377 
 143   0.0000       0.748975        20.3807 
 144   0.0000       0.761177        20.7127 
 145   0.0000       0.761899        20.7323 
 146   0.0000       0.772568        21.0227 
 147   0.0000       0.773885        21.0585 
 148   0.0000       0.777549        21.1582 
 149   0.0000       0.783016        21.3069 
 150   0.0000       0.785980        21.3876 
 151   0.0000       0.806206        21.9380 
 152   0.0000       0.810832        22.0639 
 153   0.0000       0.811573        22.0840 
 154   0.0000       0.811858        22.0918 
 155   0.0000       0.812680        22.1141 
 156   0.0000       0.813810        22.1449 
 157   0.0000       0.814638        22.1674 
 158   0.0000       0.823060        22.3966 
 159   0.0000       0.824107        22.4251 
 160   0.0000       0.832669        22.6581 
 161   0.0000       0.839404        22.8413 
 162   0.0000       0.839894        22.8547 
 163   0.0000       0.841496        22.8983 
 164   0.0000       0.862390        23.4668 
 165   0.0000       0.864009        23.5109 
 166   0.0000       0.865043        23.5390 
 167   0.0000       0.895900        24.3787 
 168   0.0000       0.912272        24.8242 
 169   0.0000       0.926392        25.2084 
 170   0.0000       0.927246        25.2317 
 171   0.0000       0.930519        25.3207 
 172   0.0000       0.932594        25.3772 
 173   0.0000       0.955226        25.9930 
 174   0.0000       0.969653        26.3856 
 175   0.0000       0.970869        26.4187 
 176   0.0000       0.973338        26.4859 
 177   0.0000       0.974627        26.5209 
 178   0.0000       0.976325        26.5672 
 179   0.0000       0.984206        26.7816 
 180   0.0000       0.985601        26.8196 
 181   0.0000       1.005545        27.3623 
 182   0.0000       1.006532        27.3891 
 183   0.0000       1.023223        27.8433 
 184   0.0000       1.053295        28.6616 
 185   0.0000       1.057814        28.7846 
 186   0.0000       1.068952        29.0877 
 187   0.0000       1.070891        29.1404 
 188   0.0000       1.073333        29.2069 
 189   0.0000       1.074604        29.2415 
 190   0.0000       1.076501        29.2931 
 191   0.0000       1.079538        29.3757 
 192   0.0000       1.080402        29.3992 
 193   0.0000       1.124404        30.5966 
 194   0.0000       1.125594        30.6290 
 195   0.0000       1.146765        31.2051 
 196   0.0000       1.147846        31.2345 
 197   0.0000       1.151538        31.3349 
 198   0.0000       1.189735        32.3743 
 199   0.0000       1.194330        32.4994 
 200   0.0000       1.222926        33.2775 
 201   0.0000       1.227946        33.4141 
 202   0.0000       1.267179        34.4817 
 203   0.0000       1.315360        35.7928 
 204   0.0000       1.334265        36.3072 
 205   0.0000       1.338286        36.4166 
 206   0.0000       1.414566        38.4923 
 207   0.0000       1.419287        38.6208 
 208   0.0000       1.419731        38.6328 
 209   0.0000       1.422223        38.7006 
 210   0.0000       1.440671        39.2027 
 211   0.0000       1.442164        39.2433 
 212   0.0000       1.444573        39.3088 
 213   0.0000       1.462292        39.7910 
 214   0.0000       1.462666        39.8012 
 215   0.0000       1.530531        41.6479 
 216   0.0000       1.557316        42.3767 
 217   0.0000       1.561061        42.4786 
 218   0.0000       1.586405        43.1683 
 219   0.0000       1.671715        45.4897 
 220   0.0000       1.679231        45.6942 
 221   0.0000       1.688640        45.9502 
 222   0.0000       1.692464        46.0543 
 223   0.0000       1.705838        46.4182 
 224   0.0000       1.711605        46.5751 
 225   0.0000       1.775681        48.3187 
 226   0.0000       1.776668        48.3456 
 227   0.0000       1.818453        49.4826 
 228   0.0000       1.820436        49.5366 
 229   0.0000       1.827852        49.7384 
 230   0.0000       1.829390        49.7802 
 231   0.0000       1.846703        50.2513 
 232   0.0000       1.849149        50.3179 
 233   0.0000       1.849348        50.3233 
 234   0.0000       1.851872        50.3920 
 235   0.0000       1.976571        53.7852 
 236   0.0000       1.989951        54.1493 
 237   0.0000       2.025875        55.1268 
 238   0.0000       2.026722        55.1499 
 239   0.0000       2.026988        55.1572 
 240   0.0000       2.029029        55.2127 
 241   0.0000       2.118790        57.6552 
 242   0.0000       2.119235        57.6673 
 243   0.0000       2.123732        57.7897 
 244   0.0000       2.123960        57.7959 
 245   0.0000       2.160326        58.7855 
 246   0.0000       2.168255        59.0012 
 247   0.0000       2.170640        59.0661 
 248   0.0000       2.171629        59.0930 
 249   0.0000       2.176495        59.2255 
 250   0.0000       2.181802        59.3699 
 251   0.0000       2.182247        59.3820 
 252   0.0000       2.183722        59.4221 
 253   0.0000       2.185750        59.4773 
 254   0.0000       2.186826        59.5066 
 255   0.0000       2.213363        60.2287 
 256   0.0000       2.215447        60.2854 
 257   0.0000       2.223813        60.5130 
 258   0.0000       2.226725        60.5923 
 259   0.0000       2.227260        60.6068 
 260   0.0000       2.227684        60.6184 
 261   0.0000       2.238019        60.8996 
 262   0.0000       2.245712        61.1089 
 263   0.0000       2.247739        61.1641 
 264   0.0000       2.248892        61.1955 
 265   0.0000       2.256962        61.4151 
 266   0.0000       2.257451        61.4284 
 267   0.0000       2.270982        61.7966 
 268   0.0000       2.274965        61.9049 
 269   0.0000       2.288648        62.2773 
 270   0.0000       2.290646        62.3316 
 271   0.0000       2.299386        62.5695 
 272   0.0000       2.301651        62.6311 
 273   0.0000       2.301972        62.6398 
 274   0.0000       2.306636        62.7668 
 275   0.0000       2.356032        64.1109 
 276   0.0000       2.358570        64.1800 
 277   0.0000       2.369451        64.4760 
 278   0.0000       2.372198        64.5508 
 279   0.0000       2.374162        64.6042 
 280   0.0000       2.410189        65.5846 
 281   0.0000       2.413786        65.6825 
 282   0.0000       2.416521        65.7569 
 283   0.0000       2.423492        65.9466 
 284   0.0000       2.426721        66.0344 
 285   0.0000       2.429163        66.1009 
 286   0.0000       2.429708        66.1157 
 287   0.0000       2.453356        66.7592 
 288   0.0000       2.453795        66.7712 
 289   0.0000       2.454200        66.7822 
 290   0.0000       2.454919        66.8017 
 291   0.0000       2.459260        66.9199 
 292   0.0000       2.460800        66.9618 
 293   0.0000       2.465861        67.0995 
 294   0.0000       2.469350        67.1944 
 295   0.0000       2.491407        67.7946 
 296   0.0000       2.504152        68.1414 
 297   0.0000       2.506420        68.2032 
 298   0.0000       2.507803        68.2408 
 299   0.0000       2.510748        68.3209 
 300   0.0000       2.512547        68.3699 
 301   0.0000       2.513853        68.4054 
 302   0.0000       2.516556        68.4790 
 303   0.0000       2.516998        68.4910 
 304   0.0000       2.517997        68.5182 
 305   0.0000       2.518401        68.5292 
 306   0.0000       2.519875        68.5693 
 307   0.0000       2.521082        68.6021 
 308   0.0000       2.522086        68.6295 
 309   0.0000       2.533152        68.9306 
 310   0.0000       2.533699        68.9454 
 311   0.0000       2.534676        68.9720 
 312   0.0000       2.536428        69.0197 
 313   0.0000       2.537788        69.0567 
 314   0.0000       2.546169        69.2848 
 315   0.0000       2.547058        69.3090 
 316   0.0000       2.548498        69.3481 
 317   0.0000       2.553193        69.4759 
 318   0.0000       2.560505        69.6749 
 319   0.0000       2.561410        69.6995 
 320   0.0000       2.571648        69.9781 
 321   0.0000       2.572474        70.0006 
 322   0.0000       2.576961        70.1227 
 323   0.0000       2.577561        70.1390 
 324   0.0000       2.592499        70.5455 
 325   0.0000       2.593409        70.5703 
 326   0.0000       2.610660        71.0397 
 327   0.0000       2.617744        71.2324 
 328   0.0000       2.619730        71.2865 
 329   0.0000       2.620991        71.3208 
 330   0.0000       2.629617        71.5555 
 331   0.0000       2.633519        71.6617 
 332   0.0000       2.634370        71.6849 
 333   0.0000       2.635840        71.7249 
 334   0.0000       2.641656        71.8831 
 335   0.0000       2.642643        71.9100 
 336   0.0000       2.645148        71.9781 
 337   0.0000       2.653036        72.1928 
 338   0.0000       2.654992        72.2460 
 339   0.0000       2.658189        72.3330 
 340   0.0000       2.659468        72.3678 
 341   0.0000       2.663031        72.4648 
 342   0.0000       2.703823        73.5748 
 343   0.0000       2.714032        73.8526 
 344   0.0000       2.716209        73.9118 
 345   0.0000       2.717988        73.9602 
 346   0.0000       2.726311        74.1867 
 347   0.0000       2.729337        74.2690 
 348   0.0000       2.745651        74.7130 
 349   0.0000       2.748334        74.7860 
 350   0.0000       2.760059        75.1050 
 351   0.0000       2.783605        75.7457 
 352   0.0000       2.785574        75.7993 
 353   0.0000       2.787615        75.8549 
 354   0.0000       2.788579        75.8811 
 355   0.0000       2.799530        76.1791 
 356   0.0000       2.801524        76.2334 
 357   0.0000       2.845045        77.4176 
 358   0.0000       2.846843        77.4665 
 359   0.0000       2.852391        77.6175 
 360   0.0000       2.853465        77.6467 
 361   0.0000       2.922156        79.5159 
 362   0.0000       2.946867        80.1883 
 363   0.0000       2.952116        80.3312 
 364   0.0000       2.996690        81.5441 
 365   0.0000       2.998859        81.6031 
 366   0.0000       3.001318        81.6700 
 367   0.0000       3.013951        82.0138 
 368   0.0000       3.027383        82.3793 
 369   0.0000       3.039321        82.7041 
 370   0.0000       3.062412        83.3325 
 371   0.0000       3.065680        83.4214 
 372   0.0000       3.076245        83.7089 
 373   0.0000       3.079953        83.8098 
 374   0.0000       3.093781        84.1861 
 375   0.0000       3.112143        84.6857 
 376   0.0000       3.154611        85.8413 
 377   0.0000       3.182633        86.6038 
 378   0.0000       3.328734        90.5794 
 379   0.0000       3.359750        91.4234 
 380   0.0000       3.359936        91.4285 
 381   0.0000       3.362856        91.5080 
 382   0.0000       3.365007        91.5665 
 383   0.0000       3.370335        91.7115 
 384   0.0000       3.445266        93.7505 
 385   0.0000       3.449040        93.8532 
 386   0.0000       3.452692        93.9525 
 387   0.0000       3.453999        93.9881 
 388   0.0000       3.474818        94.5546 
 389   0.0000       3.525830        95.9427 
 390   0.0000       3.556133        96.7673 
 391   0.0000       3.594447        97.8099 
 392   0.0000       3.595865        97.8485 
 393   0.0000       3.788178       103.0816 
 394   0.0000       3.792128       103.1891 
 395   0.0000       3.810808       103.6974 
 396   0.0000       3.811562       103.7179 
 397   0.0000       3.815933       103.8368 
 398   0.0000       3.816848       103.8617 
 399   0.0000       4.028642       109.6249 
 400   0.0000       4.035157       109.8022 
 401   0.0000       4.037235       109.8587 
 402   0.0000       4.039150       109.9109 
 403   0.0000       4.168777       113.4382 
 404   0.0000       4.172187       113.5310 
 405   0.0000       4.430544       120.5612 
 406   0.0000       4.431572       120.5892 
 407   0.0000       4.438232       120.7704 
 408   0.0000       4.439053       120.7928 
 409   0.0000       4.643894       126.3668 
 410   0.0000       4.646602       126.4405 
 411   0.0000       4.659686       126.7965 
 412   0.0000       4.665638       126.9585 
 413   0.0000       5.125598       139.4746 
 414   0.0000       5.127638       139.5301 
 415   0.0000       5.131111       139.6246 
 416   0.0000       5.131611       139.6382 
 417   0.0000       5.239137       142.5642 
 418   0.0000       5.241655       142.6327 
 419   0.0000       5.247409       142.7893 
 420   0.0000       5.249990       142.8595 
 421   0.0000       5.340328       145.3177 
 422   0.0000       5.359790       145.8473 
 423   0.0000       5.371784       146.1737 
 424   0.0000       5.375401       146.2721 
 425   0.0000       5.380067       146.3991 
 426   0.0000       5.385578       146.5490 
 427   0.0000       5.578772       151.8061 
 428   0.0000       5.588300       152.0654 
 429   0.0000       5.749581       156.4541 
 430   0.0000       5.751355       156.5023 
 431   0.0000       5.756134       156.6324 
 432   0.0000       5.758007       156.6833 
 433   0.0000       6.047851       164.5704 
 434   0.0000       6.054572       164.7533 
 435   0.0000      11.299130       307.4650 
 436   0.0000      11.300049       307.4900 
 437   0.0000      11.314439       307.8815 
 438   0.0000      11.325278       308.1765 
 439   0.0000      11.332800       308.3812 
 440   0.0000      11.334786       308.4352 
 441   0.0000      11.347274       308.7750 
 442   0.0000      11.362113       309.1788 
 443   0.0000      11.369482       309.3793 
 444   0.0000      11.370692       309.4123 
 445   0.0000      11.372321       309.4566 
 446   0.0000      11.372681       309.4664 
 447   0.0000      11.373147       309.4791 
 448   0.0000      11.391063       309.9666 
 449   0.0000      11.393830       310.0419 
 450   0.0000      11.406062       310.3747 
 451   0.0000      11.430368       311.0361 
 452   0.0000      11.432708       311.0998 
 453   0.0000      22.904810       623.2716 
 454   0.0000      22.914735       623.5416 
 455   0.0000      25.336321       689.4363 
 456   0.0000      25.356861       689.9953 
 457   0.0000      25.438501       692.2168 
 458   0.0000      25.444297       692.3745 
 459   0.0000      25.541397       695.0168 
 460   0.0000      25.602226       696.6720 
 461   0.0000      32.676431       889.1709 
 462   0.0000      32.702427       889.8783 
 463   0.0000      35.896919       976.8048 
 464   0.0000      36.031391       980.4640 
 465   0.0000      36.033739       980.5279 
 466   0.0000      36.187442       984.7104 
 467   0.0000     123.876734      3370.8573 

                    ********************************
                    * MULLIKEN POPULATION ANALYSIS *
                    ********************************

-----------------------
MULLIKEN ATOMIC CHARGES
-----------------------
   0 C :   -0.243875
   1 N :   -0.298524
   2 H :    0.113463
   3 H :    0.114156
   4 H :    0.115109
   5 H :    0.271665
   6 H :    0.267868
   7 H :    0.271040
   8 Pb:    1.116498
   9 Cl:   -0.718265
  10 Cl:   -0.721652
  11 Cl:   -0.716967
  12 Cl:   -0.728713
  13 Cl:   -0.732912
  14 Cl:   -0.723634
  15 N :   -0.291276
  16 C :   -0.243392
  17 H :    0.265900
  18 H :    0.264918
  19 H :    0.115929
  20 H :    0.116248
  21 H :    0.114750
  22 H :    0.271665
Sum of atomic charges:   -2.0000000

--------------------------------
MULLIKEN REDUCED ORBITAL CHARGES
--------------------------------
  0 C s       :     3.240872  s :     3.240872
      pz      :     0.996390  p :     2.916270
      px      :     0.982608
      py      :     0.937272
      dz2     :     0.007937  d :     0.080293
      dxz     :     0.020846
      dyz     :     0.019492
      dx2y2   :     0.012396
      dxy     :     0.019621
      f0      :     0.000297  f :     0.006441
      f+1     :     0.000602
      f-1     :     0.000842
      f+2     :     0.000680
      f-2     :     0.002510
      f+3     :     0.000661
      f-3     :     0.000848
  1 N s       :     3.411832  s :     3.411832
      pz      :     1.297839  p :     3.836266
      px      :     1.286900
      py      :     1.251527
      dz2     :     0.004057  d :     0.048160
      dxz     :     0.013113
      dyz     :     0.012169
      dx2y2   :     0.006322
      dxy     :     0.012498
      f0      :     0.000136  f :     0.002266
      f+1     :     0.000201
      f-1     :     0.000207
      f+2     :     0.000208
      f-2     :     0.001065
      f+3     :     0.000222
      f-3     :     0.000226
  2 H s       :     0.865526  s :     0.865526
      pz      :     0.008082  p :     0.021011
      px      :     0.007564
      py      :     0.005364
  3 H s       :     0.864821  s :     0.864821
      pz      :     0.006283  p :     0.021024
      px      :     0.007131
      py      :     0.007610
  4 H s       :     0.863852  s :     0.863852
      pz      :     0.007742  p :     0.021038
      px      :     0.006781
      py      :     0.006515
  5 H s       :     0.681528  s :     0.681528
      pz      :     0.012389  p :     0.046807
      px      :     0.016985
      py      :     0.017433
  6 H s       :     0.686477  s :     0.686477
      pz      :     0.014706  p :     0.045655
      px      :     0.010861
      py      :     0.020088
  7 H s       :     0.682157  s :     0.682157
      pz      :     0.020310  p :     0.046803
      px      :     0.019101
      py      :     0.007392
  8 Pbs       :     4.014354  s :     4.014354
      pz      :     2.234871  p :     6.709455
      px      :     2.238774
      py      :     2.235810
      dz2     :     2.042265  d :    10.132920
      dxz     :     2.014664
      dyz     :     2.016788
      dx2y2   :     2.044224
      dxy     :     2.014980
      f0      :     0.006074  f :     0.026773
      f+1     :     0.003718
      f-1     :     0.004444
      f+2     :     0.002155
      f-2     :     0.000271
      f+3     :     0.004812
      f-3     :     0.005299
  9 Cls       :     5.958578  s :     5.958578
      pz      :     3.944492  p :    11.751512
      px      :     3.890390
      py      :     3.916630
      dz2     :     0.001050  d :     0.007883
      dxz     :     0.000716
      dyz     :     0.002208
      dx2y2   :     0.003007
      dxy     :     0.000902
      f0      :     0.000038  f :     0.000292
      f+1     :     0.000043
      f-1     :     0.000032
      f+2     :     0.000060
      f-2     :     0.000040
      f+3     :     0.000066
      f-3     :     0.000014
 10 Cls       :     5.958088  s :     5.958088
      pz      :     3.931329  p :    11.755236
      px      :     3.933578
      py      :     3.890329
      dz2     :     0.001261  d :     0.008017
      dxz     :     0.002947
      dyz     :     0.000721
      dx2y2   :     0.002556
      dxy     :     0.000532
      f0      :     0.000019  f :     0.000312
      f+1     :     0.000096
      f-1     :     0.000028
      f+2     :     0.000086
      f-2     :     0.000019
      f+3     :     0.000014
      f-3     :     0.000050
 11 Cls       :     5.957838  s :     5.957838
      pz      :     3.893871  p :    11.750469
      px      :     3.935593
      py      :     3.921005
      dz2     :     0.003378  d :     0.008332
      dxz     :     0.000979
      dyz     :     0.001129
      dx2y2   :     0.000408
      dxy     :     0.002437
      f0      :     0.000099  f :     0.000328
      f+1     :     0.000017
      f-1     :     0.000028
      f+2     :     0.000006
      f-2     :     0.000063
      f+3     :     0.000065
      f-3     :     0.000050
 12 Cls       :     5.959357  s :     5.959357
      pz      :     3.943218  p :    11.761991
      px      :     3.898844
      py      :     3.919929
      dz2     :     0.000928  d :     0.007112
      dxz     :     0.000638
      dyz     :     0.002048
      dx2y2   :     0.002672
      dxy     :     0.000826
      f0      :     0.000032  f :     0.000254
      f+1     :     0.000036
      f-1     :     0.000031
      f+2     :     0.000050
      f-2     :     0.000037
      f+3     :     0.000058
      f-3     :     0.000011
 13 Cls       :     5.959864  s :     5.959864
      pz      :     3.903172  p :    11.766086
      px      :     3.937787
      py      :     3.925127
      dz2     :     0.002741  d :     0.006725
      dxz     :     0.000785
      dyz     :     0.000862
      dx2y2   :     0.000372
      dxy     :     0.001965
      f0      :     0.000077  f :     0.000237
      f+1     :     0.000012
      f-1     :     0.000017
      f+2     :     0.000005
      f-2     :     0.000045
      f+3     :     0.000046
      f-3     :     0.000035
 14 Cls       :     5.958191  s :     5.958191
      pz      :     3.935000  p :    11.757338
      px      :     3.930344
      py      :     3.891994
      dz2     :     0.001159  d :     0.007808
      dxz     :     0.002798
      dyz     :     0.000630
      dx2y2   :     0.002652
      dxy     :     0.000569
      f0      :     0.000021  f :     0.000297
      f+1     :     0.000080
      f-1     :     0.000030
      f+2     :     0.000080
      f-2     :     0.000020
      f+3     :     0.000015
      f-3     :     0.000051
 15 N s       :     3.409591  s :     3.409591
      pz      :     1.297450  p :     3.831452
      px      :     1.286719
      py      :     1.247283
      dz2     :     0.004044  d :     0.047974
      dxz     :     0.012995
      dyz     :     0.012110
      dx2y2   :     0.006382
      dxy     :     0.012442
      f0      :     0.000133  f :     0.002259
      f+1     :     0.000203
      f-1     :     0.000209
      f+2     :     0.000209
      f-2     :     0.001051
      f+3     :     0.000227
      f-3     :     0.000228
 16 C s       :     3.241038  s :     3.241038
      pz      :     0.997873  p :     2.915896
      px      :     0.984704
      py      :     0.933320
      dz2     :     0.007784  d :     0.080016
      dxz     :     0.020810
      dyz     :     0.019335
      dx2y2   :     0.012436
      dxy     :     0.019652
      f0      :     0.000295  f :     0.006441
      f+1     :     0.000598
      f-1     :     0.000850
      f+2     :     0.000678
      f-2     :     0.002483
      f+3     :     0.000668
      f-3     :     0.000869
 17 H s       :     0.688971  s :     0.688971
      pz      :     0.014497  p :     0.045128
      px      :     0.010935
      py      :     0.019697
 18 H s       :     0.690182  s :     0.690182
      pz      :     0.012158  p :     0.044901
      px      :     0.016167
      py      :     0.016576
 19 H s       :     0.863025  s :     0.863025
      pz      :     0.007796  p :     0.021046
      px      :     0.006765
      py      :     0.006485
 20 H s       :     0.862701  s :     0.862701
      pz      :     0.006197  p :     0.021051
      px      :     0.007230
      py      :     0.007624
 21 H s       :     0.864231  s :     0.864231
      pz      :     0.008199  p :     0.021019
      px      :     0.007590
      py      :     0.005230
 22 H s       :     0.682086  s :     0.682086
      pz      :     0.019897  p :     0.046249
      px      :     0.019059
      py      :     0.007293


                     *******************************
                     * LOEWDIN POPULATION ANALYSIS *
                     *******************************

----------------------
LOEWDIN ATOMIC CHARGES
----------------------
   0 C :   -0.325846
   1 N :    0.037747
   2 H :    0.109214
   3 H :    0.109456
   4 H :    0.109687
   5 H :    0.133213
   6 H :    0.138349
   7 H :    0.133506
   8 Pb:    0.221986
   9 Cl:   -0.511461
  10 Cl:   -0.516663
  11 Cl:   -0.503826
  12 Cl:   -0.536078
  13 Cl:   -0.548801
  14 Cl:   -0.520079
  15 N :    0.042915
  16 C :   -0.323500
  17 H :    0.141021
  18 H :    0.141879
  19 H :    0.110211
  20 H :    0.110340
  21 H :    0.109744
  22 H :    0.136985

-------------------------------
LOEWDIN REDUCED ORBITAL CHARGES
-------------------------------
  0 C s       :     2.849173  s :     2.849173
      pz      :     1.050168  p :     3.101384
      px      :     1.040880
      py      :     1.010336
      dz2     :     0.031206  d :     0.335805
      dxz     :     0.085990
      dyz     :     0.084658
      dx2y2   :     0.045755
      dxy     :     0.088195
      f0      :     0.004603  f :     0.039484
      f+1     :     0.004318
      f-1     :     0.006662
      f+2     :     0.004137
      f-2     :     0.006866
      f+3     :     0.005719
      f-3     :     0.007180
  1 N s       :     3.018881  s :     3.018881
      pz      :     1.267565  p :     3.779307
      px      :     1.262842
      py      :     1.248900
      dz2     :     0.014275  d :     0.154374
      dxz     :     0.040039
      dyz     :     0.038754
      dx2y2   :     0.021206
      dxy     :     0.040100
      f0      :     0.001221  f :     0.009691
      f+1     :     0.001112
      f-1     :     0.001465
      f+2     :     0.000988
      f-2     :     0.001917
      f+3     :     0.001348
      f-3     :     0.001640
  2 H s       :     0.830932  s :     0.830932
      pz      :     0.022450  p :     0.059854
      px      :     0.021056
      py      :     0.016348
  3 H s       :     0.830668  s :     0.830668
      pz      :     0.018019  p :     0.059876
      px      :     0.021118
      py      :     0.020738
  4 H s       :     0.830393  s :     0.830393
      pz      :     0.022721  p :     0.059920
      px      :     0.019125
      py      :     0.018074
  5 H s       :     0.719471  s :     0.719471
      pz      :     0.042641  p :     0.147316
      px      :     0.052015
      py      :     0.052660
  6 H s       :     0.719374  s :     0.719374
      pz      :     0.044542  p :     0.142277
      px      :     0.037297
      py      :     0.060437
  7 H s       :     0.719310  s :     0.719310
      pz      :     0.063132  p :     0.147185
      px      :     0.058863
      py      :     0.025189
  8 Pbs       :     3.936181  s :     3.936181
      pz      :     2.388352  p :     7.175759
      px      :     2.394673
      py      :     2.392734
      dz2     :     2.211875  d :    10.597196
      dxz     :     2.050306
      dyz     :     2.061674
      dx2y2   :     2.221715
      dxy     :     2.051626
      f0      :     0.016141  f :     0.068878
      f+1     :     0.009483
      f-1     :     0.011293
      f+2     :     0.005103
      f-2     :     0.000585
      f+3     :     0.012623
      f-3     :     0.013648
  9 Cls       :     5.851690  s :     5.851690
      pz      :     3.920882  p :    11.645790
      px      :     3.836870
      py      :     3.888038
      dz2     :     0.001690  d :     0.013357
      dxz     :     0.000810
      dyz     :     0.004006
      dx2y2   :     0.005564
      dxy     :     0.001287
      f0      :     0.000062  f :     0.000624
      f+1     :     0.000079
      f-1     :     0.000059
      f+2     :     0.000144
      f-2     :     0.000090
      f+3     :     0.000155
      f-3     :     0.000035
 10 Cls       :     5.853492  s :     5.853492
      pz      :     3.901241  p :    11.648983
      px      :     3.905269
      py      :     3.842473
      dz2     :     0.002064  d :     0.013520
      dxz     :     0.005340
      dyz     :     0.000753
      dx2y2   :     0.004862
      dxy     :     0.000501
      f0      :     0.000025  f :     0.000667
      f+1     :     0.000215
      f-1     :     0.000055
      f+2     :     0.000214
      f-2     :     0.000026
      f+3     :     0.000036
      f-3     :     0.000098
 11 Cls       :     5.848187  s :     5.848187
      pz      :     3.839557  p :    11.640630
      px      :     3.908532
      py      :     3.892540
      dz2     :     0.006150  d :     0.014298
      dxz     :     0.001309
      dyz     :     0.001870
      dx2y2   :     0.000454
      dxy     :     0.004515
      f0      :     0.000227  f :     0.000711
      f+1     :     0.000030
      f-1     :     0.000059
      f+2     :     0.000007
      f-2     :     0.000152
      f+3     :     0.000136
      f-3     :     0.000100
 12 Cls       :     5.860660  s :     5.860660
      pz      :     3.922534  p :    11.662927
      px      :     3.846148
      py      :     3.894245
      dz2     :     0.001483  d :     0.011951
      dxz     :     0.000753
      dyz     :     0.003673
      dx2y2   :     0.004869
      dxy     :     0.001174
      f0      :     0.000052  f :     0.000539
      f+1     :     0.000067
      f-1     :     0.000057
      f+2     :     0.000120
      f-2     :     0.000085
      f+3     :     0.000134
      f-3     :     0.000025
 13 Cls       :     5.866043  s :     5.866043
      pz      :     3.850143  p :    11.671168
      px      :     3.917058
      py      :     3.903966
      dz2     :     0.004805  d :     0.011094
      dxz     :     0.001030
      dyz     :     0.001364
      dx2y2   :     0.000406
      dxy     :     0.003489
      f0      :     0.000167  f :     0.000496
      f+1     :     0.000020
      f-1     :     0.000034
      f+2     :     0.000006
      f-2     :     0.000107
      f+3     :     0.000093
      f-3     :     0.000069
 14 Cls       :     5.854363  s :     5.854363
      pz      :     3.905597  p :    11.651875
      px      :     3.902859
      py      :     3.843418
      dz2     :     0.001921  d :     0.013206
      dxz     :     0.005024
      dyz     :     0.000644
      dx2y2   :     0.005075
      dxy     :     0.000544
      f0      :     0.000028  f :     0.000635
      f+1     :     0.000177
      f-1     :     0.000059
      f+2     :     0.000201
      f-2     :     0.000028
      f+3     :     0.000038
      f-3     :     0.000104
 15 N s       :     3.017865  s :     3.017865
      pz      :     1.266325  p :     3.775602
      px      :     1.262430
      py      :     1.246846
      dz2     :     0.014227  d :     0.153984
      dxz     :     0.039756
      dyz     :     0.038590
      dx2y2   :     0.021437
      dxy     :     0.039974
      f0      :     0.001198  f :     0.009634
      f+1     :     0.001096
      f-1     :     0.001490
      f+2     :     0.000985
      f-2     :     0.001859
      f+3     :     0.001340
      f-3     :     0.001666
 16 C s       :     2.849202  s :     2.849202
      pz      :     1.051139  p :     3.100645
      px      :     1.042047
      py      :     1.007459
      dz2     :     0.030857  d :     0.334222
      dxz     :     0.085448
      dyz     :     0.083978
      dx2y2   :     0.046039
      dxy     :     0.087900
      f0      :     0.004538  f :     0.039431
      f+1     :     0.004197
      f-1     :     0.006746
      f+2     :     0.004118
      f-2     :     0.006831
      f+3     :     0.005699
      f-3     :     0.007303
 17 H s       :     0.719203  s :     0.719203
      pz      :     0.043558  p :     0.139776
      px      :     0.037439
      py      :     0.058779
 18 H s       :     0.719289  s :     0.719289
      pz      :     0.041497  p :     0.138832
      px      :     0.048503
      py      :     0.048832
 19 H s       :     0.829843  s :     0.829843
      pz      :     0.022882  p :     0.059946
      px      :     0.019101
      py      :     0.017962
 20 H s       :     0.829707  s :     0.829707
      pz      :     0.017823  p :     0.059953
      px      :     0.021381
      py      :     0.020748
 21 H s       :     0.830372  s :     0.830372
      pz      :     0.022745  p :     0.059885
      px      :     0.021145
      py      :     0.015995
 22 H s       :     0.718334  s :     0.718334
      pz      :     0.061563  p :     0.144681
      px      :     0.058421
      py      :     0.024697


                      *****************************
                      * MAYER POPULATION ANALYSIS *
                      *****************************

  NA   - Mulliken gross atomic population
  ZA   - Total nuclear charge
  QA   - Mulliken gross atomic charge
  VA   - Mayer's total valence
  BVA  - Mayer's bonded valence
  FA   - Mayer's free valence

  ATOM       NA         ZA         QA         VA         BVA        FA
  0 C      6.2439     6.0000    -0.2439     3.9528     3.9528    -0.0000
  1 N      7.2985     7.0000    -0.2985     3.1134     3.1134     0.0000
  2 H      0.8865     1.0000     0.1135     0.9664     0.9664     0.0000
  3 H      0.8858     1.0000     0.1142     0.9663     0.9663    -0.0000
  4 H      0.8849     1.0000     0.1151     0.9662     0.9662     0.0000
  5 H      0.7283     1.0000     0.2717     1.0191     1.0191     0.0000
  6 H      0.7321     1.0000     0.2679     1.0224     1.0224    -0.0000
  7 H      0.7290     1.0000     0.2710     1.0221     1.0221    -0.0000
  8 Pb    20.8835    22.0000     1.1165     1.5399     1.5399     0.0000
  9 Cl    17.7183    17.0000    -0.7183     0.5129     0.5129    -0.0000
 10 Cl    17.7217    17.0000    -0.7217     0.5072     0.5072    -0.0000
 11 Cl    17.7170    17.0000    -0.7170     0.5146     0.5146     0.0000
 12 Cl    17.7287    17.0000    -0.7287     0.4947     0.4947     0.0000
 13 Cl    17.7329    17.0000    -0.7329     0.4881     0.4881     0.0000
 14 Cl    17.7236    17.0000    -0.7236     0.5037     0.5037     0.0000
 15 N      7.2913     7.0000    -0.2913     3.1249     3.1249    -0.0000
 16 C      6.2434     6.0000    -0.2434     3.9502     3.9502    -0.0000
 17 H      0.7341     1.0000     0.2659     1.0256     1.0256    -0.0000
 18 H      0.7351     1.0000     0.2649     1.0276     1.0276     0.0000
 19 H      0.8841     1.0000     0.1159     0.9663     0.9663     0.0000
 20 H      0.8838     1.0000     0.1162     0.9665     0.9665    -0.0000
 21 H      0.8852     1.0000     0.1148     0.9661     0.9661     0.0000
 22 H      0.7283     1.0000     0.2717     1.0208     1.0208     0.0000

  Mayer bond orders larger than 0.1
B(  0-C ,  1-N ) :   0.9579 B(  0-C ,  2-H ) :   0.9795 B(  0-C ,  3-H ) :   0.9791 
B(  0-C ,  4-H ) :   0.9789 B(  1-N ,  5-H ) :   0.7632 B(  1-N ,  6-H ) :   0.7690 
B(  1-N ,  7-H ) :   0.7616 B(  5-H , 11-Cl) :   0.2589 B(  6-H ,  9-Cl) :   0.2564 
B(  7-H , 10-Cl) :   0.2637 B(  8-Pb,  9-Cl) :   0.2701 B(  8-Pb, 10-Cl) :   0.2558 
B(  8-Pb, 11-Cl) :   0.2681 B(  8-Pb, 12-Cl) :   0.2520 B(  8-Pb, 13-Cl) :   0.2440 
B(  8-Pb, 14-Cl) :   0.2563 B( 12-Cl, 17-H ) :   0.2572 B( 13-Cl, 18-H ) :   0.2592 
B( 14-Cl, 22-H ) :   0.2598 B( 15-N , 16-C ) :   0.9576 B( 15-N , 17-H ) :   0.7709 
B( 15-N , 18-H ) :   0.7711 B( 15-N , 22-H ) :   0.7643 B( 16-C , 19-H ) :   0.9785 
B( 16-C , 20-H ) :   0.9786 B( 16-C , 21-H ) :   0.9792 

-------
TIMINGS
-------

Total SCF time: 0 days 0 hours 6 min 41 sec 

Total time                  ....     401.733 sec
Sum of individual times     ....     331.073 sec  ( 82.4%)

Fock matrix formation       ....     316.126 sec  ( 78.7%)
  Coulomb formation         ....     263.108 sec  ( 83.2% of F)
  Split-RI-J                ....      20.059 sec  (  6.3% of F)
  Chain of spheres X        ....     311.546 sec  ( 98.6% of F)
  COS-X 1 center corr.      ....       0.000 sec  (  0.0% of F)
  XC integration            ....      53.122 sec  ( 16.8% of F)
    Basis function eval.    ....      25.510 sec  ( 48.0% of XC)
    Density eval.           ....      13.809 sec  ( 26.0% of XC)
    XC-Functional eval.     ....       2.516 sec  (  4.7% of XC)
    XC-Potential eval.      ....      10.049 sec  ( 18.9% of XC)
Diagonalization             ....       0.259 sec  (  0.1%)
Density matrix formation    ....       0.113 sec  (  0.0%)
Population analysis         ....       0.430 sec  (  0.1%)
Initial guess               ....       0.844 sec  (  0.2%)
Orbital Transformation      ....       0.000 sec  (  0.0%)
Orbital Orthonormalization  ....       0.829 sec  (  0.2%)
DIIS solution               ....       0.061 sec  (  0.0%)
SOSCF solution              ....       0.579 sec  (  0.1%)
Grid generation             ....      12.661 sec  (  3.2%)

------------------------------------------------------------------------------
                              ORCA MP2 CALCULATION
------------------------------------------------------------------------------


----------------------
RI-MP2 ENERGY+GRADIENT
----------------------
Dimension of the basis                    ...  468
Memory devoted to MP2                     ... 1000 MB   
Data format for buffers                   ... DOUBLE
Compression type for matrix containers    ... UNCOMPRESSED
Overall scaling of the MP2 energy         ...   2.700e-01 Eh
Calculating two index integrals           ... done (    0.022 sec)
Cholesky decomposition of the V-matrix    ... done
Cholesky decomposition of V**-1           ... done (    0.089 sec)

-----------------
RI-TRANSFORMATION (AUX index driven)
-----------------

Dimension of the orbital-basis         ... 468
Dimension of the aux-basis             ... 810
Transformation of internal MOs         ...    0-  81
Transformation of internal/external MOs...    0-  81 to   82- 467
Number Format for Storage              ... Double (8 Byte)
Integral mode                          ... Direct

First Phase: integral generation and transformation of MO indices
  Aux angular momentum 0               ... done (    2.114 sec)
  Aux angular momentum 1               ... done (    2.035 sec)
  Aux angular momentum 2               ... done (    2.497 sec)
  Aux angular momentum 3               ... done (    1.175 sec)
  Aux angular momentum 4               ... done (    1.149 sec)
Closing buffer VIJ ( 0.02 GB; CompressionRatio= 1.98)
Closing buffer VIA ( 0.19 GB; CompressionRatio= 1.00)
  Phase 1 completed in     9.086 sec
Second Phase: sorting and transformation of aux index

IJ-Transformation
Memory available                       ... 972 MB 
Max. # MO pairs treated in a batch     ... 82    
# of internal orbitals                 ... 82
# batches for internal orbitals        ... 1
Closing buffer IJV ( 0.02 GB; CompressionRatio= 1.00)
(ij|v) transformation done in     0.717 sec

IA-Transformation
Memory available                       ... 972 MB 
Max. # MO pairs treated in a batch     ... 82    
# of internal orbitals                 ... 82
# batches for internal orbitals        ... 1
Closing buffer IAV ( 0.19 GB; CompressionRatio= 1.00)
(ia|v) transformation done in     2.825 sec

  Phase 2 completed in     4.296 sec
RI-Integral transformation completed in    13.384 sec
Opening buffers                              ... done

Starting loop over batches of integrals:

Operator 0  - window                       ... (  0- 81)x( 82-467)
Operator 0  - Memory available             ...  1000 MB
Operator 0  - Memory needed per MO         ...   4.8 MB
Operator 0  - Number of orbitals per batch ... 82
Operator 0  - Number of batches            ... 1

OPERATOR  0   PASS   0:  MOs     0 ...   81
  Reading integrals       ... ok
  Internal MO   2
  Internal MO   5
  Internal MO   8
  Internal MO  11
  Internal MO  14
  Internal MO  17
  Internal MO  20
  Internal MO  23
  Internal MO  26
  Internal MO  29
  Internal MO  32
  Internal MO  35
  Internal MO  38
  Internal MO  41
  Internal MO  44
  Internal MO  47
  Internal MO  50
  Internal MO  53
  Internal MO  56
  Internal MO  59
  Internal MO  62
  Internal MO  65
  Internal MO  68
  Internal MO  71
  Internal MO  74
  Internal MO  77
  Internal MO  80
Closing buffer GIPV ( 0.23 GB; CompressionRatio= 1.00)
Time spent in pair loops =   843.391 sec

-----------------------------------------------
 RI-MP2 CORRELATION ENERGY:     -1.013599776 Eh
-----------------------------------------------


---------------------
MP2 DENSITY FORMATION
---------------------

Completing the external part of the density      ... done
Storing the unrelaxed density                    ... done

Calculating the xc-kernel                        ... done
Calculating G(D)                                 ... done
Completing the Lagrangian                        ... done
Solving the Z-vector equations                   ... 

------------------------------------------------------------------------------
                           ORCA CP-SCF CALCULATION
------------------------------------------------------------------------------

Input orbitals are from        ... PbCl6NH3CH3-2_mp2_sp_2.orca.gbw
Input Perturbation             ... PbCl6NH3CH3-2_mp2_sp_2.orca.pin.tmp
Wavefunction output            ... PbCl6NH3CH3-2_mp2_sp_2.orca.pout.tmp
Perturbation mode              ... Real perturbation
Solver                         ... POPLE
Max. number of iterations      ... 128
Convergence tolerance          ... 1.000e-08
Integral handling              ... Direct
[...]
      pz      :     0.008368  p :     0.021761
      px      :     0.007800
      py      :     0.005592
 22 H s       :     0.690862  s :     0.690862
      pz      :     0.019800  p :     0.046397
      px      :     0.019001
      py      :     0.007596


                     *******************************
                     * LOEWDIN POPULATION ANALYSIS *
                     *******************************

----------------------
LOEWDIN ATOMIC CHARGES
----------------------
   0 C :   -0.340162
   1 N :    0.031973
   2 H :    0.111737
   3 H :    0.111977
   4 H :    0.112197
   5 H :    0.130268
   6 H :    0.135359
   7 H :    0.130511
   8 Pb:    0.158015
   9 Cl:   -0.493529
  10 Cl:   -0.498902
  11 Cl:   -0.486169
  12 Cl:   -0.518109
  13 Cl:   -0.530754
  14 Cl:   -0.502317
  15 N :    0.037081
  16 C :   -0.337795
  17 H :    0.137986
  18 H :    0.138806
  19 H :    0.112722
  20 H :    0.112843
  21 H :    0.112264
  22 H :    0.133999

-------------------------------
LOEWDIN REDUCED ORBITAL CHARGES
-------------------------------
  0 C s       :     2.849985  s :     2.849985
      pz      :     1.052258  p :     3.107951
      px      :     1.043028
      py      :     1.012665
      dz2     :     0.033253  d :     0.341150
      dxz     :     0.086389
      dyz     :     0.085149
      dx2y2   :     0.047784
      dxy     :     0.088574
      f0      :     0.004835  f :     0.041077
      f+1     :     0.004513
      f-1     :     0.006849
      f+2     :     0.004313
      f-2     :     0.007250
      f+3     :     0.005943
      f-3     :     0.007375
  1 N s       :     3.020899  s :     3.020899
      pz      :     1.264458  p :     3.769152
      px      :     1.259570
      py      :     1.245124
      dz2     :     0.016615  d :     0.166810
      dxz     :     0.042706
      dyz     :     0.041296
      dx2y2   :     0.023571
      dxy     :     0.042623
      f0      :     0.001421  f :     0.011167
      f+1     :     0.001301
      f-1     :     0.001649
      f+2     :     0.001172
      f-2     :     0.002238
      f+3     :     0.001553
      f-3     :     0.001832
  2 H s       :     0.826249  s :     0.826249
      pz      :     0.023189  p :     0.062014
      px      :     0.021792
      py      :     0.017033
  3 H s       :     0.825994  s :     0.825994
      pz      :     0.018713  p :     0.062029
      px      :     0.021811
      py      :     0.021506
  4 H s       :     0.825729  s :     0.825729
      pz      :     0.023416  p :     0.062074
      px      :     0.019841
      py      :     0.018816
  5 H s       :     0.721386  s :     0.721386
      pz      :     0.043112  p :     0.148345
      px      :     0.052305
      py      :     0.052929
  6 H s       :     0.721248  s :     0.721248
      pz      :     0.044899  p :     0.143394
      px      :     0.037794
      py      :     0.060701
  7 H s       :     0.721266  s :     0.721266
      pz      :     0.063380  p :     0.148223
      px      :     0.059128
      py      :     0.025715
  8 Pbs       :     3.913418  s :     3.913418
      pz      :     2.417729  p :     7.263553
      px      :     2.423959
      py      :     2.421865
      dz2     :     2.201871  d :    10.561595
      dxz     :     2.045363
      dyz     :     2.056282
      dx2y2   :     2.211516
      dxy     :     2.046563
      f0      :     0.020826  f :     0.103419
      f+1     :     0.014452
      f-1     :     0.016196
      f+2     :     0.010311
      f-2     :     0.005701
      f+3     :     0.017469
      f-3     :     0.018464
  9 Cls       :     5.849291  s :     5.849291
      pz      :     3.903437  p :    11.587628
      px      :     3.815108
      py      :     3.869083
      dz2     :     0.009576  d :     0.053288
      dxz     :     0.008755
      dyz     :     0.012042
      dx2y2   :     0.013633
      dxy     :     0.009283
      f0      :     0.000443  f :     0.003322
      f+1     :     0.000459
      f-1     :     0.000441
      f+2     :     0.000537
      f-2     :     0.000474
      f+3     :     0.000545
      f-3     :     0.000423
 10 Cls       :     5.851064  s :     5.851064
      pz      :     3.882966  p :    11.591004
      px      :     3.887208
      py      :     3.820830
      dz2     :     0.010007  d :     0.053468
      dxz     :     0.013429
      dyz     :     0.008701
      dx2y2   :     0.012886
      dxy     :     0.008444
      f0      :     0.000407  f :     0.003367
      f+1     :     0.000608
      f-1     :     0.000436
      f+2     :     0.000609
      f-2     :     0.000407
      f+3     :     0.000419
      f-3     :     0.000482
 11 Cls       :     5.845810  s :     5.845810
      pz      :     3.817996  p :    11.582657
      px      :     3.890672
      py      :     3.873989
      dz2     :     0.014220  d :     0.054286
      dxz     :     0.009288
      dyz     :     0.009875
      dx2y2   :     0.008330
      dxy     :     0.012574
      f0      :     0.000623  f :     0.003416
      f+1     :     0.000417
      f-1     :     0.000448
      f+2     :     0.000385
      f-2     :     0.000540
      f+3     :     0.000521
      f-3     :     0.000483
 12 Cls       :     5.858132  s :     5.858132
      pz      :     3.905138  p :    11.604971
      px      :     3.824343
      py      :     3.875490
      dz2     :     0.009354  d :     0.051781
      dxz     :     0.008686
      dyz     :     0.011687
      dx2y2   :     0.012904
      dxy     :     0.009150
      f0      :     0.000431  f :     0.003225
      f+1     :     0.000446
      f-1     :     0.000438
      f+2     :     0.000510
      f-2     :     0.000468
      f+3     :     0.000522
      f-3     :     0.000410
 13 Cls       :     5.863462  s :     5.863462
      pz      :     3.828270  p :    11.613246
      px      :     3.899356
      py      :     3.885620
      dz2     :     0.012829  d :     0.050872
      dxz     :     0.008975
      dyz     :     0.009331
      dx2y2   :     0.008248
      dxy     :     0.011490
      f0      :     0.000557  f :     0.003175
      f+1     :     0.000403
      f-1     :     0.000418
      f+2     :     0.000381
      f-2     :     0.000492
      f+3     :     0.000475
      f-3     :     0.000449
 14 Cls       :     5.851906  s :     5.851906
      pz      :     3.887513  p :    11.593965
      px      :     3.884660
      py      :     3.821792
      dz2     :     0.009846  d :     0.053115
      dxz     :     0.013098
      dyz     :     0.008585
      dx2y2   :     0.013100
      dxy     :     0.008486
      f0      :     0.000409  f :     0.003331
      f+1     :     0.000568
      f-1     :     0.000440
      f+2     :     0.000595
      f-2     :     0.000409
      f+3     :     0.000421
      f-3     :     0.000488
 15 N s       :     3.019851  s :     3.019851
      pz      :     1.263337  p :     3.765718
      px      :     1.259269
      py      :     1.243112
      dz2     :     0.016546  d :     0.166248
      dxz     :     0.042374
      dyz     :     0.041088
      dx2y2   :     0.023785
      dxy     :     0.042454
      f0      :     0.001398  f :     0.011103
      f+1     :     0.001285
      f-1     :     0.001674
      f+2     :     0.001169
      f-2     :     0.002176
      f+3     :     0.001545
      f-3     :     0.001857
 16 C s       :     2.850009  s :     2.850009
      pz      :     1.053221  p :     3.107258
      px      :     1.044193
      py      :     1.009844
      dz2     :     0.032885  d :     0.339507
      dxz     :     0.085837
      dyz     :     0.084477
      dx2y2   :     0.048047
      dxy     :     0.088260
      f0      :     0.004767  f :     0.041021
      f+1     :     0.004395
      f-1     :     0.006934
      f+2     :     0.004297
      f-2     :     0.007208
      f+3     :     0.005923
      f-3     :     0.007497
 17 H s       :     0.721088  s :     0.721088
      pz      :     0.043925  p :     0.140926
      px      :     0.037935
      py      :     0.059066
 18 H s       :     0.721193  s :     0.721193
      pz      :     0.041985  p :     0.140001
      px      :     0.048853
      py      :     0.049164
 19 H s       :     0.825190  s :     0.825190
      pz      :     0.023578  p :     0.062087
      px      :     0.019810
      py      :     0.018700
 20 H s       :     0.825065  s :     0.825065
      pz      :     0.018508  p :     0.062091
      px      :     0.022072
      py      :     0.021512
 21 H s       :     0.825705  s :     0.825705
      pz      :     0.023477  p :     0.062031
      px      :     0.021875
      py      :     0.016679
 22 H s       :     0.720268  s :     0.720268
      pz      :     0.061830  p :     0.145732
      px      :     0.058689
      py      :     0.025214


                      *****************************
                      * MAYER POPULATION ANALYSIS *
                      *****************************

  NA   - Mulliken gross atomic population
  ZA   - Total nuclear charge
  QA   - Mulliken gross atomic charge
  VA   - Mayer's total valence
  BVA  - Mayer's bonded valence
  FA   - Mayer's free valence

  ATOM       NA         ZA         QA         VA         BVA        FA
  0 C      6.2700     6.0000    -0.2700     4.0006     3.8826     0.1180
  1 N      7.2907     7.0000    -0.2907     3.1972     3.0499     0.1473
  2 H      0.8820     1.0000     0.1180     0.9691     0.9492     0.0198
  3 H      0.8813     1.0000     0.1187     0.9690     0.9491     0.0198
  4 H      0.8804     1.0000     0.1196     0.9689     0.9491     0.0198
  5 H      0.7375     1.0000     0.2625     1.0271     1.0052     0.0219
  6 H      0.7412     1.0000     0.2588     1.0305     1.0084     0.0221
  7 H      0.7381     1.0000     0.2619     1.0301     1.0081     0.0220
  8 Pb    20.9704    22.0000     1.0296     1.9839     1.6216     0.3622
  9 Cl    17.6929    17.0000    -0.6929     0.7966     0.5389     0.2577
 10 Cl    17.6965    17.0000    -0.6965     0.7904     0.5331     0.2573
 11 Cl    17.6917    17.0000    -0.6917     0.7980     0.5405     0.2575
 12 Cl    17.7038    17.0000    -0.7038     0.7780     0.5208     0.2571
 13 Cl    17.7081    17.0000    -0.7081     0.7711     0.5142     0.2569
 14 Cl    17.6987    17.0000    -0.6987     0.7869     0.5296     0.2572
 15 N      7.2833     7.0000    -0.2833     3.2071     3.0606     0.1464
 16 C      6.2695     6.0000    -0.2695     3.9982     3.8804     0.1177
 17 H      0.7432     1.0000     0.2568     1.0337     1.0116     0.0222
 18 H      0.7442     1.0000     0.2558     1.0358     1.0136     0.0222
 19 H      0.8795     1.0000     0.1205     0.9690     0.9492     0.0197
 20 H      0.8792     1.0000     0.1208     0.9691     0.9494     0.0197
 21 H      0.8807     1.0000     0.1193     0.9687     0.9489     0.0198
 22 H      0.7373     1.0000     0.2627     1.0287     1.0067     0.0220

  Mayer bond orders larger than 0.1
B(  0-C ,  1-N ) :   0.9402 B(  0-C ,  2-H ) :   0.9607 B(  0-C ,  3-H ) :   0.9603 
B(  0-C ,  4-H ) :   0.9601 B(  1-N ,  5-H ) :   0.7441 B(  1-N ,  6-H ) :   0.7496 
B(  1-N ,  7-H ) :   0.7425 B(  5-H , 11-Cl) :   0.2645 B(  6-H ,  9-Cl) :   0.2621 
B(  7-H , 10-Cl) :   0.2691 B(  8-Pb,  9-Cl) :   0.2828 B(  8-Pb, 10-Cl) :   0.2684 
B(  8-Pb, 11-Cl) :   0.2805 B(  8-Pb, 12-Cl) :   0.2650 B(  8-Pb, 13-Cl) :   0.2570 
B(  8-Pb, 14-Cl) :   0.2691 B( 12-Cl, 17-H ) :   0.2628 B( 13-Cl, 18-H ) :   0.2648 
B( 14-Cl, 22-H ) :   0.2651 B( 15-N , 16-C ) :   0.9401 B( 15-N , 17-H ) :   0.7515 
B( 15-N , 18-H ) :   0.7517 B( 15-N , 22-H ) :   0.7451 B( 16-C , 19-H ) :   0.9598 
B( 16-C , 20-H ) :   0.9599 B( 16-C , 21-H ) :   0.9604 


-------
TIMINGS
-------

Total time                : 1598.476 sec
Integral trafo            :   13.395 sec (  0.8%)
I/O of integrals          :    1.117 sec (  0.1%)
K(i,j) Operators          :  103.687 sec (  6.5%)
T(i,j) pair energies      :   14.254 sec (  0.9%)
V-calculation             :    0.022 sec (  0.0%)
V**(-1/2)                 :    0.089 sec (  0.0%)
Gamma(ia|P)               :   93.188 sec (  5.8%)
Gamma-Trafo               :    6.219 sec (  0.4%)
D(virtual)                :   45.398 sec (  2.8%)
D(internal)               :  114.314 sec (  7.2%)
W(virtual)                :   91.097 sec (  5.7%)
W(internal)               :  328.446 sec ( 20.5%)
L(virtual)                :   40.534 sec (  2.5%)
L(internal)               :    1.801 sec (  0.1%)
G(D)                      :   39.152 sec (  2.4%)
G(Z)                      :   40.664 sec (  2.5%)
Z-Vector Solution         :  317.849 sec ( 19.9%)
Z-Vector Solution         :  317.849 sec ( 19.9%)
3-Index Derivative 
+ Separable RIJ part      :   20.387 sec (  1.3%)
2-Index Derivative 
+ Separable RIJ part      :    0.106 sec (  0.0%)
Separable Gradient (COSX) :  317.970 sec ( 19.9%)


---------------------------------------
MP2 TOTAL ENERGY:    -3146.564231916 Eh
---------------------------------------

The final MP2 gradient
  0:  -0.00047719  -0.00011528  -0.00030246
  1:   0.00007535   0.00370939   0.00229977
  2:   0.00305109  -0.00206415   0.00321610
  3:  -0.00277695   0.00319378   0.00256333
  4:   0.00276443   0.00260766  -0.00303200
  5:  -0.00383296  -0.00392732   0.00365748
  6:   0.00390996  -0.00484227  -0.00382674
  7:  -0.00369570   0.00191819  -0.00344017
  8:  -0.00028261  -0.00082565   0.00177853
  9:   0.00353025  -0.00074541  -0.00103357
 10:  -0.00014329   0.00295287  -0.00061177
 11:   0.00046283   0.00131925   0.00241298
 12:  -0.00400596   0.00226045   0.00152496
 13:   0.00253767   0.00231240  -0.00493851
 14:   0.00128847  -0.00299058   0.00073137
 15:  -0.00316540  -0.00694199  -0.00299516
 16:   0.00065419   0.00046756   0.00079743
 17:  -0.00335329   0.00435675   0.00323396
 18:   0.00323619   0.00352564  -0.00339949
 19:  -0.00287057  -0.00282253   0.00297341
 20:   0.00278705  -0.00334742  -0.00260679
 21:  -0.00321692   0.00191674  -0.00340764
 22:   0.00359290  -0.00180051   0.00428904

-----------------------------------
NORM OF THE MP2 GRADIENT:  0.024037
-----------------------------------

Entering the calculation of the dispersion correction...

Checking the input atom types...

Done


-------------------------------------------------------------------------------
                          DFT DISPERSION CORRECTION                            
                                                                               
                                DFTD3 V2.1  Rev 6                               
                          USING Becke-Johnson damping                          
-------------------------------------------------------------------------------
The B2PLYP functional is recognized
Active option DFTDOPT                   ...         4   

molecular C6(AA) [au] = 13720.332379 


            DFT-D V3
 parameters
 s6 scaling factor         :     0.6400 
 a1 scaling factor         :     0.3065 
 s8 scaling factor         :     0.9147 
 a2 scaling factor         :     5.0570 
 ad hoc parameters k1-k3   :    16.0000     1.3333    -4.0000 

 Edisp/kcal,au: -17.414843116234  -0.027752316066 
 E6   /kcal   :  -8.199406702 
 E8   /kcal   :  -9.215436414 
 % E8         :  52.917137137 

-------------------------   ----------------
Dispersion correction           -0.027752316
-------------------------   ----------------


-------------------------   --------------------
FINAL SINGLE POINT ENERGY     -3146.591984231986
-------------------------   --------------------


                            ***************************************
                            *     ORCA property calculations      *
                            ***************************************


  WARNING: The energy has been calculated at the MP2 level but the densities
           used in the property calculations are still SCF densities
           MP2 response densities have not been calculated 
           use %mp2 Density relaxed end
           or  %mp2 Density unrelaxed end

                                    ---------------------
                                    Active property flags
                                    ---------------------
   (+) Dipole Moment


------------------------------------------------------------------------------
                       ORCA ELECTRIC PROPERTIES CALCULATION
------------------------------------------------------------------------------

Dipole Moment Calculation                       ... on
Quadrupole Moment Calculation                   ... off
Polarizability Calculation                      ... off
GBWName                                         ... PbCl6NH3CH3-2_mp2_sp_2.orca.gbw
Electron density file                           ... PbCl6NH3CH3-2_mp2_sp_2.orca.scfp.tmp

-------------
DIPOLE MOMENT
-------------
                                X             Y             Z
Electronic contribution:      0.14514      -1.23546       2.77575
Nuclear contribution   :     -0.11367       1.17812      -2.56436
                        -----------------------------------------
Total Dipole Moment    :      0.03147      -0.05735       0.21139
                        -----------------------------------------
Magnitude (a.u.)       :      0.22128
Magnitude (Debye)      :      0.56245


                         *** MP2 UNRELAXED DENSITY ***

------------------------------------------------------------------------------
                       ORCA ELECTRIC PROPERTIES CALCULATION
------------------------------------------------------------------------------

Dipole Moment Calculation                       ... on
Quadrupole Moment Calculation                   ... off
Polarizability Calculation                      ... off
GBWName                                         ... PbCl6NH3CH3-2_mp2_sp_2.orca.gbw
Electron density file                           ... PbCl6NH3CH3-2_mp2_sp_2.orca.pmp2ur

-------------
DIPOLE MOMENT
-------------
                                X             Y             Z
Electronic contribution:      0.14579      -1.23483       2.77508
Nuclear contribution   :     -0.11367       1.17812      -2.56436
                        -----------------------------------------
Total Dipole Moment    :      0.03212      -0.05671       0.21072
                        -----------------------------------------
Magnitude (a.u.)       :      0.22057
Magnitude (Debye)      :      0.56065


                           *** MP2 RELAXED DENSITY ***

------------------------------------------------------------------------------
                       ORCA ELECTRIC PROPERTIES CALCULATION
------------------------------------------------------------------------------

Dipole Moment Calculation                       ... on
Quadrupole Moment Calculation                   ... off
Polarizability Calculation                      ... off
GBWName                                         ... PbCl6NH3CH3-2_mp2_sp_2.orca.gbw
Electron density file                           ... PbCl6NH3CH3-2_mp2_sp_2.orca.pmp2re

-------------
DIPOLE MOMENT
-------------
                                X             Y             Z
Electronic contribution:      0.14527      -1.23423       2.76994
Nuclear contribution   :     -0.11367       1.17812      -2.56436
                        -----------------------------------------
Total Dipole Moment    :      0.03160      -0.05611       0.20558
                        -----------------------------------------
Magnitude (a.u.)       :      0.21543
Magnitude (Debye)      :      0.54759


Timings for individual modules:

Sum of individual times         ...     2002.846 sec (=  33.381 min)
GTO integral calculation        ...        1.329 sec (=   0.022 min)   0.1 %
SCF iterations                  ...      402.750 sec (=   6.713 min)  20.1 %
MP2 module                      ...     1598.766 sec (=  26.646 min)  79.8 %
                             ****ORCA TERMINATED NORMALLY****
TOTAL RUN TIME: 0 days 0 hours 33 minutes 24 seconds 467 msec
