
                                 *****************
                                 * O   R   C   A *
                                 *****************

           --- An Ab Initio, DFT and Semiempirical electronic structure package ---

                  #######################################################
                  #                        -***-                        #
                  #  Department of molecular theory and spectroscopy    #
                  #              Directorship: Frank Neese              #
                  # Max Planck Institute for Chemical Energy Conversion #
                  #                  D-45470 Muelheim/Ruhr              #
                  #                       Germany                       #
                  #                                                     #
                  #                  All rights reserved                #
                  #                        -***-                        #
                  #######################################################


                         Program Version 3.0.3 - RELEASE   -


 With contributions from (in alphabetic order):
   Ute Becker             : Parallelization
   Dmytro Bykov           : SCF Hessian
   Dmitry Ganyushin       : Spin-Orbit,Spin-Spin,Magnetic field MRCI
   Andreas Hansen         : Spin unrestricted coupled pair/coupled cluster methods
   Dimitrios Liakos       : Extrapolation schemes; parallel MDCI
   Robert Izsak           : Overlap fitted RIJCOSX, COSX-SCS-MP3
   Christian Kollmar      : KDIIS, OOCD, Brueckner-CCSD(T), CCSD density
   Simone Kossmann        : Meta GGA functionals, TD-DFT gradient, OOMP2, MP2 Hessian
   Taras Petrenko         : DFT Hessian,TD-DFT gradient, ASA and ECA modules, normal mode analysis, Resonance Raman, ABS, FL, XAS/XES, NRVS
   Christoph Reimann      : Effective Core Potentials
   Michael Roemelt        : Restricted open shell CIS
   Christoph Riplinger    : Improved optimizer, TS searches, QM/MM, DLPNO-CCSD
   Barbara Sandhoefer     : DKH picture change effects
   Igor Schapiro          : Molecular dynamics
   Kantharuban Sivalingam : CASSCF convergence, NEVPT2
   Boris Wezisla          : Elementary symmetry handling
   Frank Wennmohs         : Technical directorship


 We gratefully acknowledge several colleagues who have allowed us to
 interface, adapt or use parts of their codes:
   Stefan Grimme, W. Hujo, H. Kruse, T. Risthaus : VdW corrections, initial TS optimization,
                                                   DFT functionals, gCP
   Ed Valeev                                     : LibInt (2-el integral package), F12 methods
   Garnet Chan, S. Sharma, R. Olivares           : DMRG
   Ulf Ekstrom                                   : XCFun DFT Library
   Mihaly Kallay                                 : mrcc  (arbitrary order and MRCC methods)
   Andreas Klamt, Michael Diedenhofen            : otool_cosmo (COSMO solvation model)
   Frank Weinhold                                : gennbo (NPA and NBO analysis)
   Christopher J. Cramer and Donald G. Truhlar   : smd solvation model


 Your calculation uses the libint2 library for the computation of 2-el integrals
 For citations please refer to: http://libint.valeyev.net

 This ORCA versions uses:
   CBLAS   interface :  Fast vector & matrix operations
   LAPACKE interface :  Fast linear algebra routines
   SCALAPACK package :  Parallel linear algebra routines


Your calculation utilizes the basis: Ahlrichs-TZV
Cite in your paper:
H - Kr: A. Schaefer, H. Horn and R. Ahlrichs, J. Chem. Phys. 97, 2571 (1992).

The def2-TZV basis will be loaded
Cite in your paper:
 	F. Weigend, R. Ahlrichs, Phys. Chem. Chem. Phys. 2005, 7, 3297.

Your calculation utilizes the atom-pairwise dispersion correction
with the Becke-Johnson damping scheme (D3BJ)
Cite in your paper:
S.Grimme, S.Ehrlich, L.Goerigk, J Comput Chem, (2011), 32, 1456–1465 
S.Grimme, J.Antony, S.Ehrlich and H.Krieg, J.Chem.Phys., 132, (2010), 154104 
   

================================================================================
                                        WARNINGS
                       Please study these warnings very carefully!
================================================================================

WARNING: The RI method has been chosen with no auxiliary basis (AUX or GTOAUX in BASIS block)
        Standard TZV/J expansion basis used (GTOAUX=TZV_J)

Now building the actual basis set
cite the ECPs for Pb [SD(60,MDF)] as follows:
  B. Metz, H. Stoll, M. Dolg, J. Chem. Phys. 113, 2563 (2000).

ECP parameters for Pb [SD(60,MDF)] have been obtained from:
  pseudopotential library of the Stuttgart/Cologne group
  http://www.theochem.uni-stuttgart.de/pseudopotentials/

cite the ECP basis sets for Pb [DEF2-TZVP] as follows:
  F. Weigend, R. Ahlrichs; Phys. Chem. Chem. Phys. 7, 3297(2005).

ECP basis sets for Pb [DEF2-TZVP] have been obtained from:
  Turbomole basis set library
  ftp://ftp.chemie.uni-karlsruhe.de/pub/basen/



INFO   : the flag for use of LIBINT has been found!

================================================================================
                                       INPUT FILE
================================================================================
NAME = PbMACl3_mp2_md2_1.orca
|  1> ! RIJCOSX RI-B2PLYP D3BJ def2-TZVP ECP{def2-TZVP} TIGHTSCF Grid5 FinalGrid6 SlowConv MORead
|  2> %method
|  3>  RunTyp Gradient
|  4>  end
|  5> %maxcore 1000
|  6> %moinp "previous.gbw"
|  7> *xyz 0 1
|  8> C -0.394281 0.276013 -0.426662 
|  9> N -1.165380 -0.685592 -1.253010 
| 10> H 0.248796 -0.278576 0.260517 
| 11> H -1.090820 0.897444 0.140826 
| 12> H 0.215705 0.904875 -1.079130 
| 13> H -1.783150 -1.324970 -0.698370 
| 14> H -0.582260 -1.326300 -1.835140 
| 15> H -1.813140 -0.240924 -1.938260 
| 16> Pb -2.751750 -3.741890 -2.708770 
| 17> Cl -1.147520 -3.202350 -4.647720 
| 18> Cl -2.525310 1.437540 -2.662590 
| 19> Cl -4.666110 -3.452490 -1.013410 
| 20> *
| 21> 
| 22>                          ****END OF INPUT****
================================================================================

                     *******************************
                     * Energy+Gradient Calculation *
                     *******************************

---------------------------------
CARTESIAN COORDINATES (ANGSTROEM)
---------------------------------
  C     -0.394281    0.276013   -0.426662
  N     -1.165380   -0.685592   -1.253010
  H      0.248796   -0.278576    0.260517
  H     -1.090820    0.897444    0.140826
  H      0.215705    0.904875   -1.079130
  H     -1.783150   -1.324970   -0.698370
  H     -0.582260   -1.326300   -1.835140
  H     -1.813140   -0.240924   -1.938260
  Pb    -2.751750   -3.741890   -2.708770
  Cl    -1.147520   -3.202350   -4.647720
  Cl    -2.525310    1.437540   -2.662590
  Cl    -4.666110   -3.452490   -1.013410

----------------------------
CARTESIAN COORDINATES (A.U.)
----------------------------
  NO LB      ZA    FRAG    MASS        X           Y           Z
   0 C     6.0000    0    12.011         -0.745083109808605          0.521588979402006         -0.806274331751109
   1 N     7.0000    0    14.007         -2.202249041949148         -1.295581119607339         -2.367845743064668
   2 H     1.0000    0     1.008          0.470156303215072         -0.526432347483247          0.492305783230763
   3 H     1.0000    0     1.008         -2.061351061403979          1.695923380530824          0.266122572535594
   4 H     1.0000    0     1.008          0.407623375717484          1.709965935431992         -2.039260162898440
   5 H     1.0000    0     1.008         -3.369665155701680         -2.503830435661641         -1.319728040146585
   6 H     1.0000    0     1.008         -1.100311938736988         -2.506343771419756         -3.467912017404246
   7 H     1.0000    0     1.008         -3.426338042457978         -0.455280379088844         -3.662780576334205
   8 Pb   22.0000*   0   207.200  -5.200053889017804  -7.071147323258593  -5.118833459781869
   9 Cl   17.0000    0    35.453         -2.168498533197315         -6.051564484962721         -8.782917947148480
  10 Cl   17.0000    0    35.453         -4.772144303252676          2.716556906557156         -5.031565906917385
  11 Cl   17.0000    0    35.453         -8.817670010751291         -6.524260580101783         -1.915067361377135
* core charge reduced due to ECP

--------------------------------
INTERNAL COORDINATES (ANGSTROEM)
--------------------------------
 C      0   0   0   0.000000     0.000     0.000
 N      1   0   0   1.483957     0.000     0.000
 H      1   2   0   1.092397   109.099     0.000
 H      1   2   3   1.092422   109.061   240.173
 H      1   2   3   1.092367   109.305   120.114
 H      2   1   3   1.047888   114.015    60.210
 H      2   1   3   1.043749   114.711   299.789
 H      2   1   3   1.042540   114.361   179.708
 Pb     6   2   1   3.289589   107.362   193.433
 Cl     9   6   2   2.573749    97.057    10.687
 Cl     8   2   1   1.961908   146.420   359.255
 Cl     9   6   2   2.573475    74.562   209.836

---------------------------
INTERNAL COORDINATES (A.U.)
---------------------------
 C      0   0   0   0.000000     0.000     0.000
 N      1   0   0   2.804273     0.000     0.000
 H      1   2   0   2.064332   109.099     0.000
 H      1   2   3   2.064378   109.061   240.173
 H      1   2   3   2.064274   109.305   120.114
 H      2   1   3   1.980222   114.015    60.210
 H      2   1   3   1.972399   114.711   299.789
 H      2   1   3   1.970116   114.361   179.708
 Pb     6   2   1   6.216422   107.362   193.433
 Cl     9   6   2   4.863681    97.057    10.687
 Cl     8   2   1   3.707468   146.420   359.255
 Cl     9   6   2   4.863162    74.562   209.836

---------------------
BASIS SET INFORMATION
---------------------
There are 5 groups of distinct atoms

 Group   1 Type C   : 11s6p2d1f contracted to 5s3p2d1f pattern {62111/411/11/1}
 Group   2 Type N   : 11s6p2d1f contracted to 5s3p2d1f pattern {62111/411/11/1}
 Group   3 Type H   : 5s1p contracted to 3s1p pattern {311/1}
 Group   4 Type Pb  : 10s9p8d2f contracted to 6s5p3d2f pattern {421111/33111/611/11}
 Group   5 Type Cl  : 14s9p3d1f contracted to 5s5p2d1f pattern {73211/51111/21/1}

Atom   0C    basis set group =>   1
Atom   1N    basis set group =>   2
Atom   2H    basis set group =>   3
Atom   3H    basis set group =>   3
Atom   4H    basis set group =>   3
Atom   5H    basis set group =>   3
Atom   6H    basis set group =>   3
Atom   7H    basis set group =>   3
Atom   8Pb   basis set group =>   4
Atom   9Cl   basis set group =>   5
Atom  10Cl   basis set group =>   5
Atom  11Cl   basis set group =>   5
-------------------------------
AUXILIARY BASIS SET INFORMATION
-------------------------------
There are 5 groups of distinct atoms

 Group   1 Type C   : 12s5p4d2f1g contracted to 6s4p3d1f1g pattern {711111/2111/211/2/1}
 Group   2 Type N   : 12s5p4d2f1g contracted to 6s4p3d1f1g pattern {711111/2111/211/2/1}
 Group   3 Type H   : 5s2p1d contracted to 3s1p1d pattern {311/2/1}
 Group   4 Type Pb  : 31s12p8d6f3g contracted to 31s12p8d6f3g pattern {1111111111111111111111111111111/111111111111/11111111/111111/111}
 Group   5 Type Cl  : 14s5p5d2f1g contracted to 8s4p3d1f1g pattern {71111111/2111/311/2/1}

Atom   0C    basis set group =>   1
Atom   1N    basis set group =>   2
Atom   2H    basis set group =>   3
Atom   3H    basis set group =>   3
Atom   4H    basis set group =>   3
Atom   5H    basis set group =>   3
Atom   6H    basis set group =>   3
Atom   7H    basis set group =>   3
Atom   8Pb   basis set group =>   4
Atom   9Cl   basis set group =>   5
Atom  10Cl   basis set group =>   5
Atom  11Cl   basis set group =>   5

-------------------------
ECP PARAMETER INFORMATION
-------------------------

 Group 1, Type Pb ECP SD(60,MDF) (replacing 60 core electrons, lmax=5)

Atom   8Pb   ECP group =>   1


------------------------------------------------------------------------------
                           ORCA GTO INTEGRAL CALCULATION
                           -- RI-GTO INTEGRALS CHOSEN --
------------------------------------------------------------------------------

                         BASIS SET STATISTICS AND STARTUP INFO

Gaussian basis set:
 # of primitive gaussian shells          ...  186
 # of primitive gaussian functions       ...  420
 # of contracted shells                  ...  101
 # of contracted basis functions         ...  259
 Highest angular momentum                ...    3
 Maximum contraction depth               ...    7
Auxiliary gaussian basis set:
 # of primitive gaussian shells          ...  237
 # of primitive gaussian functions       ...  643
 # of contracted shells                  ...  171
 # of contracted aux-basis functions     ...  493
 Highest angular momentum                ...    4
 Maximum contraction depth               ...    7
Ratio of auxiliary to basis functions    ...  1.90
Integral package used                  ... LIBINT
 One Electron integrals                  
   ECP integrals                         ... done
 Ordering auxiliary basis shells         ... done
 Integral threshhold             Thresh  ...  2.500e-11
 Primitive cut-off               TCut    ...  2.500e-12
 Pre-screening matrix                    ... done
 Shell pair data                         ... 
 Ordering of the shell pairs             ... done (   0.001 sec) 4066 of 5151 pairs
 Determination of significant pairs      ... done (   0.000 sec)
 Creation of shell pair data             ... done (   0.001 sec)
 Storage of shell pair data              ... done (   0.001 sec)
 Shell pair data done in (   0.003 sec)
 Computing two index integrals           ... done
 Cholesky decomposition of the V-matrix  ... done


Timings:
 Total evaluation time                   ...   0.546 sec (  0.009 min)
 One electron matrix time                ...   0.241 sec (  0.004 min) = 44.1%
 Schwartz matrix evaluation time         ...   0.214 sec (  0.004 min) = 39.2%
 Two index repulsion integral time       ...   0.009 sec (  0.000 min) =  1.6%
 Cholesky decomposition of V             ...   0.053 sec (  0.001 min) =  9.7%
 Three index repulsion integral time     ...   0.000 sec (  0.000 min) =  0.0%

-------------------------------------------------------------------------------
                                 ORCA SCF
-------------------------------------------------------------------------------

------------
SCF SETTINGS
------------
Hamiltonian:
 Density Functional     Method          .... DFT(GTOs)
 Exchange Functional    Exchange        .... B88
   X-Alpha parameter    XAlpha          ....  0.666667
   Becke's b parameter  XBeta           ....  0.004200
 Correlation Functional Correlation     .... LYP
 LDA part of GGA corr.  LDAOpt          .... VWN-3
 Gradients option       PostSCFGGA      .... off
 Hybrid DFT is turned on
   Fraction HF Exchange ScalHFX         ....  0.530000
   Scaling of DF-GGA-X  ScalDFX         ....  0.470000
   Scaling of DF-GGA-C  ScalDFC         ....  0.730000
   Scaling of DF-LDA-C  ScalLDAC        ....  0.730000
   Perturbative correction              ....  0.270000
 RI-approximation to the Coulomb term is turned on
   Number of auxiliary basis functions  .... 493
   RIJ-COSX (HFX calculated with COS-X)).... on


General Settings:
 Integral files         IntName         .... PbMACl3_mp2_md2_1.orca
 Hartree-Fock type      HFTyp           .... RHF
 Total Charge           Charge          ....    0
 Multiplicity           Mult            ....    1
 Number of Electrons    NEL             ....   92
 Basis Dimension        Dim             ....  259
 Nuclear Repulsion      ENuc            ....    504.2701459597 Eh

Convergence Acceleration:
 DIIS                   CNVDIIS         .... on
   Start iteration      DIISMaxIt       ....     0
   Startup error        DIISStart       ....  0.200000
   # of expansion vecs  DIISMaxEq       ....     5
   Bias factor          DIISBfac        ....   1.050
   Max. coefficient     DIISMaxC        ....  10.000
 Newton-Raphson         CNVNR           .... off
 SOSCF                  CNVSOSCF        .... on
   Start iteration      SOSCFMaxIt      ....   150
   Startup grad/error   SOSCFStart      ....  0.001000
 Level Shifting         CNVShift        .... on
   Level shift para.    LevelShift      ....    0.2500
   Turn off err/grad.   ShiftErr        ....    0.0000
 Zerner damping         CNVZerner       .... off
 Static damping         CNVDamp         .... on
   Fraction old density DampFac         ....    0.8500
   Max. Damping (<1)    DampMax         ....    0.9800
   Min. Damping (>=0)   DampMin         ....    0.0000
   Turn off err/grad.   DampErr         ....    0.0300
 Fernandez-Rico         CNVRico         .... off

SCF Procedure:
 Maximum # iterations   MaxIter         ....   125
 SCF integral mode      SCFMode         .... Direct
   Integral package                     .... LIBINT
 Reset frequeny         DirectResetFreq ....    20
 Integral Threshold     Thresh          ....  2.500e-11 Eh
 Primitive CutOff       TCut            ....  2.500e-12 Eh

Convergence Tolerance:
 Convergence Check Mode ConvCheckMode   .... Total+1el-Energy
 Energy Change          TolE            ....  1.000e-08 Eh
 1-El. energy change                    ....  1.000e-05 Eh
 Orbital Gradient       TolG            ....  1.000e-05
 Orbital Rotation angle TolX            ....  1.000e-05
 DIIS Error             TolErr          ....  5.000e-07


Diagonalization of the overlap matrix:
Smallest eigenvalue                        ... 1.068e-03
Time for diagonalization                   ...    0.037 sec
Threshold for overlap eigenvalues          ... 1.000e-08
Number of eigenvalues below threshold      ... 0
Time for construction of square roots      ...    0.005 sec
Total time needed                          ...    0.043 sec

---------------------
INITIAL GUESS: MOREAD
---------------------
Guess MOs are being read from file: previous.gbw
Input geometry compatible with but different from current geometry
Input basis set matches current basis set (good)
MOs were renormalized
MOs were reorthogonalized (Schmidt)
                      ------------------
                      INITIAL GUESS DONE (   0.1 sec)
                      ------------------
-------------------
DFT GRID GENERATION
-------------------

General Integration Accuracy     IntAcc      ...  5.010
Radial Grid Type                 RadialGrid  ... Gauss-Chebyshev
Angular Grid (max. acc.)         AngularGrid ... Lebedev-434
Angular grid pruning method      GridPruning ... 3 (G Style)
Weight generation scheme         WeightScheme... Becke
Basis function cutoff            BFCut       ...    1.0000e-11
Integration weight cutoff        WCut        ...    1.0000e-14
Grids for H and He will be reduced by one unit

# of grid points (after initial pruning)     ... 115882 (   0.0 sec)
# of grid points (after weights+screening)   ... 109730 (   0.2 sec)
nearest neighbour list constructed           ...    0.0 sec
Grid point re-assignment to atoms done       ...    0.0 sec
Grid point division into batches done        ...    1.0 sec
Reduced shell lists constructed in    3.2 sec

Total number of grid points                  ...   109730
Total number of batches                      ...     1721
Average number of points per batch           ...       63
Average number of grid points per atom       ...     9144
Average number of shells per batch           ...    49.45 (48.97%)
Average number of basis functions per batch  ...   126.83 (48.97%)
Average number of large shells per batch     ...    36.66 (74.12%)
Average number of large basis fcns per batch ...    92.92 (73.26%)
Maximum spatial batch extension              ...  35.03, 34.15, 35.42 au
Average spatial batch extension              ...   2.50,  2.48,  2.52 au

Time for grid setup =    3.464 sec

--------------------
COSX GRID GENERATION
--------------------

General Integration Accuracy     IntAcc      ...  3.340
Radial Grid Type                 RadialGrid  ... Gauss-Chebyshev
Angular Grid (max. acc.)         AngularGrid ... Lebedev-50
Angular grid pruning method      GridPruning ... 3 (G Style)
Weight generation scheme         WeightScheme... Becke
Basis function cutoff            BFCut       ...    1.0000e-11
Integration weight cutoff        WCut        ...    1.0000e-14
Grids for H and He will be reduced by one unit

# of grid points (after initial pruning)     ...   6578 (   0.0 sec)
# of grid points (after weights+screening)   ...   6245 (   0.0 sec)
nearest neighbour list constructed           ...    0.0 sec
Grid point re-assignment to atoms done       ...    0.0 sec
Grid point division into batches done        ...    0.0 sec
Reduced shell lists constructed in    0.1 sec

Total number of grid points                  ...     6245
Total number of batches                      ...      103
Average number of points per batch           ...       60
Average number of grid points per atom       ...      520
Average number of shells per batch           ...    60.17 (59.58%)
Average number of basis functions per batch  ...   157.25 (60.71%)
Average number of large shells per batch     ...    45.55 (75.70%)
Average number of large basis fcns per batch ...   117.26 (74.57%)
Maximum spatial batch extension              ...  44.74, 27.94, 26.38 au
Average spatial batch extension              ...   7.10,  6.60,  6.79 au

Overlap Fitting                  UseSFitting ... on
Constructing numerical overlap ... done (      0.1 sec)
Inverting numerical overlap    ... done (      0.0 sec)
Obtaining analytic overlap     ... done (      0.0 sec)
Final contraction and storage  ... done (      0.0 sec)


General Integration Accuracy     IntAcc      ...  3.670
Radial Grid Type                 RadialGrid  ... Gauss-Chebyshev
Angular Grid (max. acc.)         AngularGrid ... Lebedev-50
Angular grid pruning method      GridPruning ... 3 (G Style)
Weight generation scheme         WeightScheme... Becke
Basis function cutoff            BFCut       ...    1.0000e-11
Integration weight cutoff        WCut        ...    1.0000e-14
Grids for H and He will be reduced by one unit

# of grid points (after initial pruning)     ...   8124 (   0.0 sec)
# of grid points (after weights+screening)   ...   7690 (   0.0 sec)
nearest neighbour list constructed           ...    0.0 sec
Grid point re-assignment to atoms done       ...    0.0 sec
Grid point division into batches done        ...    0.0 sec
Reduced shell lists constructed in    0.2 sec

Total number of grid points                  ...     7690
Total number of batches                      ...      126
Average number of points per batch           ...       61
Average number of grid points per atom       ...      641
Average number of shells per batch           ...    60.16 (59.56%)
Average number of basis functions per batch  ...   156.87 (60.57%)
Average number of large shells per batch     ...    45.69 (75.96%)
Average number of large basis fcns per batch ...   117.03 (74.61%)
Maximum spatial batch extension              ...  46.50, 33.04, 29.35 au
Average spatial batch extension              ...   6.54,  6.14,  6.12 au

Overlap Fitting                  UseSFitting ... on
Constructing numerical overlap ... done (      0.1 sec)
Inverting numerical overlap    ... done (      0.0 sec)
Obtaining analytic overlap     ... done (      0.0 sec)
Final contraction and storage  ... done (      0.0 sec)


General Integration Accuracy     IntAcc      ...  4.010
Radial Grid Type                 RadialGrid  ... Gauss-Chebyshev
Angular Grid (max. acc.)         AngularGrid ... Lebedev-110
Angular grid pruning method      GridPruning ... 3 (G Style)
Weight generation scheme         WeightScheme... Becke
Basis function cutoff            BFCut       ...    1.0000e-11
Integration weight cutoff        WCut        ...    1.0000e-14
Grids for H and He will be reduced by one unit

# of grid points (after initial pruning)     ...  15170 (   0.0 sec)
# of grid points (after weights+screening)   ...  14481 (   0.0 sec)
nearest neighbour list constructed           ...    0.0 sec
Grid point re-assignment to atoms done       ...    0.0 sec
Grid point division into batches done        ...    0.0 sec
Reduced shell lists constructed in    0.3 sec

Total number of grid points                  ...    14481
Total number of batches                      ...      231
Average number of points per batch           ...       62
Average number of grid points per atom       ...     1207
Average number of shells per batch           ...    56.14 (55.59%)
Average number of basis functions per batch  ...   146.00 (56.37%)
Average number of large shells per batch     ...    42.39 (75.50%)
Average number of large basis fcns per batch ...   108.65 (74.42%)
Maximum spatial batch extension              ...  29.18, 29.00, 33.63 au
Average spatial batch extension              ...   5.32,  5.18,  5.12 au

Overlap Fitting                  UseSFitting ... on
Constructing numerical overlap ... done (      0.2 sec)
Inverting numerical overlap    ... done (      0.0 sec)
Obtaining analytic overlap     ... done (      0.0 sec)
Final contraction and storage  ... done (      0.0 sec)

Time for X-Grid setup             =    1.261 sec
--------------
SCF ITERATIONS
--------------
ITER       Energy         Delta-E        Max-DP      RMS-DP      [F,P]     Damp
               ***  Starting incremental Fock matrix formation  ***
  0  -1668.6178545973   0.000000000000 0.03084143  0.00049050  0.5679720 0.8500
  1  -1668.6551280034  -0.037273406092 0.02945936  0.00057411  0.4832891 0.8500
                               ***Turning on DIIS***
  2  -1668.6903491723  -0.035221168876 0.02586467  0.00054859  0.4110369 0.8500
  3  -1668.7209791362  -0.030629963944 0.02389150  0.00049267  0.3495564 0.8500
  4  -1668.7477974578  -0.026818321592 0.02186043  0.00045412  0.2972037 0.8500
  5  -1668.7712298687  -0.023432410932 0.02001147  0.00042205  0.2526505 0.8500
  6  -1668.7919512359  -0.020721367130 0.01818265  0.00038807  0.2147661 0.8500
  7  -1668.8103280335  -0.018376797623 0.01644829  0.00035458  0.1825610 0.8500
  8  -1668.8265968620  -0.016268828513 0.01464688  0.00031936  0.1551873 0.8500
  9  -1668.8408845882  -0.014287726183 0.01284799  0.00028397  0.1319174 0.8500
 10  -1668.8533841138  -0.012499525614 0.01117768  0.00025090  0.1121354 0.8500
 11  -1668.8643014038  -0.010917289979 0.00969496  0.00022114  0.0953188 0.8500
 12  -1668.8738223204  -0.009520916659 0.00839897  0.00019465  0.0810237 0.8500
 13  -1668.8821091925  -0.008286872115 0.00726196  0.00017101  0.0688722 0.8500
 14  -1668.8893052840  -0.007196091446 0.00626217  0.00014989  0.0585429 0.8500
 15  -1668.8955405341  -0.006235250112 0.00538770  0.00013113  0.0497626 0.8500
 16  -1668.9009330205  -0.005392486405 0.00462898  0.00011457  0.0422990 0.8500
 17  -1668.9055888831  -0.004655862621 0.00397444  0.00010003  0.0359548 0.8500
 18  -1668.9096025827  -0.004013699585 0.00342908  0.00008728  0.0305620 0.8500
 19  -1668.9130577658  -0.003455183105 0.01986421  0.00050743  0.0259781 0.0000
               *** Restarting incremental Fock matrix formation ***
                                   *** Resetting DIIS ***
 20  -1668.9363285410  -0.023270775200 0.00229687  0.00003727  0.0008478 0.0000
               *** Restarting incremental Fock matrix formation ***
                                   *** Resetting DIIS ***
                      *** Initiating the SOSCF procedure ***
                           *** Shutting down DIIS ***
                      *** Re-Reading the Fockian *** 
                      *** Removing any level shift *** 
ITER      Energy       Delta-E        Grad      Rot      Max-DP    RMS-DP
 21  -1668.93355898   0.0027695577  0.000922  0.000922  0.001555  0.000030
               *** Restarting incremental Fock matrix formation ***
 22  -1668.93356904  -0.0000100601  0.000695  0.003467  0.001239  0.000030
 23  -1668.93357997  -0.0000109224  0.000346  0.003506  0.001183  0.000029
 24  -1668.93358321  -0.0000032422  0.000031  0.000191  0.000169  0.000003
 25  -1668.93358333  -0.0000001231  0.000032  0.000062  0.000058  0.000001
 26  -1668.93358336  -0.0000000301  0.000004  0.000030  0.000030  0.000000
                  ***Gradient check signals convergence***
              ***Rediagonalizing the Fockian in SOSCF/NRSCF***

               *****************************************************
               *                     SUCCESS                       *
               *           SCF CONVERGED AFTER  27 CYCLES          *
               *****************************************************

Old exchange energy                            =    -59.147962087 Eh
New exchange energy                            =    -59.151255517 Eh
Exchange energy change after final integration =     -0.003293431 Eh
Total energy after final integration           =  -1668.936876806 Eh
Final COS-X integration done in                =    16.042 sec

----------------
TOTAL SCF ENERGY
----------------

Total Energy       :        -1668.93687681 Eh          -45414.08123 eV

Components:
Nuclear Repulsion  :          504.27014596 Eh           13721.88828 eV
Electronic Energy  :        -2173.20702277 Eh          -59135.96950 eV

One Electron Energy:        -3378.18399443 Eh          -91925.05987 eV
Two Electron Energy:         1204.97697166 Eh           32789.09036 eV

Virial components:
Potential Energy   :        -3206.36390604 Eh          -87249.59757 eV
Kinetic Energy     :         1537.42702924 Eh           41835.51634 eV
Virial Ratio       :            2.08553892


DFT components:
N(Alpha)           :       46.000007546141 electrons
N(Beta)            :       46.000007546141 electrons
N(Total)           :       92.000015092282 electrons
E(X)               :      -52.542824695014 Eh       
E(C)               :       -2.594128919122 Eh       
E(XC)              :      -55.136953614137 Eh       

---------------
SCF CONVERGENCE
---------------

  Last Energy change         ...   -1.4043e-08  Tolerance :   1.0000e-08
  Last MAX-Density change    ...    1.3745e-13  Tolerance :   1.0000e-07
  Last RMS-Density change    ...    1.3029e-15  Tolerance :   5.0000e-09
  Last Orbital Gradient      ...    2.3043e-06  Tolerance :   1.0000e-05
  Last Orbital Rotation      ...    1.2244e-05  Tolerance :   1.0000e-05

             **** THE GBW FILE WAS UPDATED (PbMACl3_mp2_md2_1.orca.gbw) ****
             **** DENSITY FILE WAS UPDATED (PbMACl3_mp2_md2_1.orca.scfp.tmp) ****
             **** ENERGY FILE WAS UPDATED (PbMACl3_mp2_md2_1.orca.en.tmp) ****
----------------
ORBITAL ENERGIES
----------------

  NO   OCC          E(Eh)            E(eV) 
   0   2.0000    -102.883368     -2799.5988 
   1   2.0000    -102.883055     -2799.5903 
   2   2.0000    -102.760591     -2796.2578 
   3   2.0000     -14.990682      -407.9172 
   4   2.0000     -10.709540      -291.4214 
   5   2.0000      -9.889673      -269.1117 
   6   2.0000      -9.889382      -269.1038 
   7   2.0000      -9.766886      -265.7705 
   8   2.0000      -7.526225      -204.7990 
   9   2.0000      -7.525926      -204.7909 
  10   2.0000      -7.525338      -204.7749 
  11   2.0000      -7.525024      -204.7663 
  12   2.0000      -7.524825      -204.7609 
  13   2.0000      -7.524571      -204.7540 
  14   2.0000      -7.403616      -201.4626 
  15   2.0000      -7.402616      -201.4354 
  16   2.0000      -7.402605      -201.4351 
  17   2.0000      -5.882465      -160.0700 
  18   2.0000      -3.657074       -99.5141 
  19   2.0000      -3.655143       -99.4615 
  20   2.0000      -3.646786       -99.2341 
  21   2.0000      -1.159701       -31.5571 
  22   2.0000      -1.047640       -28.5077 
  23   2.0000      -1.047008       -28.4905 
  24   2.0000      -1.044313       -28.4172 
  25   2.0000      -1.039119       -28.2759 
  26   2.0000      -1.037363       -28.2281 
  27   2.0000      -0.897525       -24.4229 
  28   2.0000      -0.895796       -24.3758 
  29   2.0000      -0.866437       -23.5770 
  30   2.0000      -0.782193       -21.2846 
  31   2.0000      -0.689402       -18.7596 
  32   2.0000      -0.673201       -18.3187 
  33   2.0000      -0.615320       -16.7437 
  34   2.0000      -0.604652       -16.4534 
  35   2.0000      -0.519624       -14.1397 
  36   2.0000      -0.519268       -14.1300 
  37   2.0000      -0.429162       -11.6781 
  38   2.0000      -0.382939       -10.4203 
  39   2.0000      -0.380853       -10.3635 
  40   2.0000      -0.370840       -10.0911 
  41   2.0000      -0.369429       -10.0527 
  42   2.0000      -0.325288        -8.8515 
  43   2.0000      -0.273138        -7.4325 
  44   2.0000      -0.262092        -7.1319 
  45   2.0000      -0.261310        -7.1106 
  46   0.0000      -0.124827        -3.3967 
  47   0.0000      -0.107889        -2.9358 
  48   0.0000       0.011790         0.3208 
  49   0.0000       0.013937         0.3792 
  50   0.0000       0.062121         1.6904 
  51   0.0000       0.069888         1.9018 
  52   0.0000       0.085683         2.3316 
  53   0.0000       0.096169         2.6169 
  54   0.0000       0.109591         2.9821 
  55   0.0000       0.126364         3.4385 
  56   0.0000       0.133760         3.6398 
  57   0.0000       0.136535         3.7153 
  58   0.0000       0.155184         4.2228 
  59   0.0000       0.166706         4.5363 
  60   0.0000       0.190446         5.1823 
  61   0.0000       0.197174         5.3654 
  62   0.0000       0.218715         5.9515 
  63   0.0000       0.243908         6.6371 
  64   0.0000       0.255549         6.9538 
  65   0.0000       0.268102         7.2954 
  66   0.0000       0.287902         7.8342 
  67   0.0000       0.292091         7.9482 
  68   0.0000       0.309361         8.4182 
  69   0.0000       0.342824         9.3287 
  70   0.0000       0.378014        10.2863 
  71   0.0000       0.397321        10.8117 
  72   0.0000       0.419316        11.4102 
  73   0.0000       0.423243        11.5170 
  74   0.0000       0.424836        11.5604 
  75   0.0000       0.438157        11.9229 
  76   0.0000       0.440574        11.9886 
  77   0.0000       0.446088        12.1387 
  78   0.0000       0.464007        12.6263 
  79   0.0000       0.465918        12.6783 
  80   0.0000       0.477163        12.9843 
  81   0.0000       0.490482        13.3467 
  82   0.0000       0.494923        13.4676 
  83   0.0000       0.496248        13.5036 
  84   0.0000       0.500710        13.6250 
  85   0.0000       0.516273        14.0485 
  86   0.0000       0.527757        14.3610 
  87   0.0000       0.535983        14.5848 
  88   0.0000       0.538070        14.6416 
  89   0.0000       0.540694        14.7130 
  90   0.0000       0.554938        15.1006 
  91   0.0000       0.570641        15.5279 
  92   0.0000       0.581622        15.8267 
  93   0.0000       0.592376        16.1194 
  94   0.0000       0.607181        16.5222 
  95   0.0000       0.616903        16.7868 
  96   0.0000       0.619542        16.8586 
  97   0.0000       0.625747        17.0274 
  98   0.0000       0.635204        17.2848 
  99   0.0000       0.652838        17.7646 
 100   0.0000       0.658436        17.9169 
 101   0.0000       0.662920        18.0390 
 102   0.0000       0.682412        18.5694 
 103   0.0000       0.696026        18.9398 
 104   0.0000       0.714781        19.4502 
 105   0.0000       0.720344        19.6016 
 106   0.0000       0.725477        19.7412 
 107   0.0000       0.737471        20.0676 
 108   0.0000       0.751842        20.4587 
 109   0.0000       0.777743        21.1635 
 110   0.0000       0.806666        21.9505 
 111   0.0000       0.834335        22.7034 
 112   0.0000       0.864769        23.5316 
 113   0.0000       0.874992        23.8097 
 114   0.0000       0.887206        24.1421 
 115   0.0000       0.905582        24.6421 
 116   0.0000       0.930223        25.3126 
 117   0.0000       0.986578        26.8462 
 118   0.0000       1.005428        27.3591 
 119   0.0000       1.005517        27.3615 
 120   0.0000       1.029078        28.0026 
 121   0.0000       1.041587        28.3430 
 122   0.0000       1.073949        29.2236 
 123   0.0000       1.096201        29.8291 
 124   0.0000       1.181700        32.1557 
 125   0.0000       1.205354        32.7994 
 126   0.0000       1.220505        33.2116 
 127   0.0000       1.259855        34.2824 
 128   0.0000       1.289878        35.0994 
 129   0.0000       1.334625        36.3170 
 130   0.0000       1.496318        40.7169 
 131   0.0000       1.570774        42.7429 
 132   0.0000       1.573056        42.8050 
 133   0.0000       1.596462        43.4419 
 134   0.0000       1.598775        43.5049 
 135   0.0000       1.610471        43.8231 
 136   0.0000       1.708619        46.4939 
 137   0.0000       1.801817        49.0299 
 138   0.0000       1.818227        49.4765 
 139   0.0000       1.869993        50.8851 
 140   0.0000       1.874101        50.9969 
 141   0.0000       1.879694        51.1491 
 142   0.0000       1.889983        51.4291 
 143   0.0000       1.897514        51.6340 
 144   0.0000       1.903634        51.8005 
 145   0.0000       1.917980        52.1909 
 146   0.0000       1.938580        52.7514 
 147   0.0000       1.956229        53.2317 
 148   0.0000       1.972738        53.6809 
 149   0.0000       1.973790        53.7095 
 150   0.0000       1.994803        54.2813 
 151   0.0000       2.005252        54.5657 
 152   0.0000       2.013915        54.8014 
 153   0.0000       2.018292        54.9205 
 154   0.0000       2.020576        54.9827 
 155   0.0000       2.047657        55.7196 
 156   0.0000       2.049222        55.7622 
 157   0.0000       2.078102        56.5480 
 158   0.0000       2.079479        56.5855 
 159   0.0000       2.085861        56.7592 
 160   0.0000       2.087136        56.7939 
 161   0.0000       2.093310        56.9619 
 162   0.0000       2.102742        57.2185 
 163   0.0000       2.116851        57.6024 
 164   0.0000       2.138645        58.1955 
 165   0.0000       2.171535        59.0905 
 166   0.0000       2.187080        59.5135 
 167   0.0000       2.227189        60.6049 
 168   0.0000       2.228117        60.6301 
 169   0.0000       2.228686        60.6456 
 170   0.0000       2.229573        60.6698 
 171   0.0000       2.230586        60.6973 
 172   0.0000       2.232746        60.7561 
 173   0.0000       2.244635        61.0796 
 174   0.0000       2.270071        61.7718 
 175   0.0000       2.270448        61.7820 
 176   0.0000       2.279688        62.0335 
 177   0.0000       2.284127        62.1543 
 178   0.0000       2.308612        62.8205 
 179   0.0000       2.315415        63.0056 
 180   0.0000       2.333744        63.5044 
 181   0.0000       2.339323        63.6562 
 182   0.0000       2.342254        63.7360 
 183   0.0000       2.343864        63.7798 
 184   0.0000       2.350218        63.9527 
 185   0.0000       2.362193        64.2785 
 186   0.0000       2.364077        64.3298 
 187   0.0000       2.369887        64.4879 
 188   0.0000       2.372154        64.5496 
 189   0.0000       2.374069        64.6017 
 190   0.0000       2.380841        64.7860 
 191   0.0000       2.393135        65.1205 
 192   0.0000       2.399161        65.2845 
 193   0.0000       2.408166        65.5295 
 194   0.0000       2.417494        65.7834 
 195   0.0000       2.451799        66.7168 
 196   0.0000       2.458035        66.8865 
 197   0.0000       2.481738        67.5315 
 198   0.0000       2.498073        67.9760 
 199   0.0000       2.508686        68.2648 
 200   0.0000       2.540474        69.1298 
 201   0.0000       2.562376        69.7258 
 202   0.0000       2.617202        71.2177 
 203   0.0000       2.631021        71.5937 
 204   0.0000       2.636103        71.7320 
 205   0.0000       2.682137        72.9847 
 206   0.0000       2.740738        74.5793 
 207   0.0000       2.773937        75.4827 
 208   0.0000       2.805216        76.3338 
 209   0.0000       2.973133        80.9031 
 210   0.0000       3.001745        81.6816 
 211   0.0000       3.036497        82.6273 
 212   0.0000       3.113863        84.7325 
 213   0.0000       3.131308        85.2072 
 214   0.0000       3.160398        85.9988 
 215   0.0000       3.200194        87.0817 
 216   0.0000       3.208910        87.3189 
 217   0.0000       3.279758        89.2468 
 218   0.0000       3.399379        92.5018 
 219   0.0000       3.553324        96.6909 
 220   0.0000       3.569414        97.1287 
 221   0.0000       3.615155        98.3734 
 222   0.0000       3.754328       102.1605 
 223   0.0000       3.810892       103.6996 
 224   0.0000       3.904814       106.2554 
 225   0.0000       4.165560       113.3506 
 226   0.0000       4.190309       114.0241 
 227   0.0000       4.383078       119.2696 
 228   0.0000       4.447168       121.0136 
 229   0.0000       4.821672       131.2044 
 230   0.0000       4.829252       131.4106 
 231   0.0000       4.923799       133.9834 
 232   0.0000       4.929975       134.1515 
 233   0.0000       5.043742       137.2472 
 234   0.0000       5.074697       138.0895 
 235   0.0000       5.120853       139.3455 
 236   0.0000       5.309110       144.4682 
 237   0.0000       5.448660       148.2656 
 238   0.0000       5.486251       149.2885 
 239   0.0000       5.798378       157.7819 
 240   0.0000      11.012022       299.6524 
 241   0.0000      11.029573       300.1299 
 242   0.0000      11.031157       300.1730 
 243   0.0000      11.039672       300.4047 
 244   0.0000      11.115357       302.4642 
 245   0.0000      11.127754       302.8016 
 246   0.0000      11.146244       303.3047 
 247   0.0000      11.154167       303.5203 
 248   0.0000      11.204609       304.8929 
 249   0.0000      22.657601       616.5447 
 250   0.0000      24.907102       677.7567 
 251   0.0000      25.004296       680.4015 
 252   0.0000      25.170072       684.9125 
 253   0.0000      32.293219       878.7432 
 254   0.0000      35.430773       964.1203 
 255   0.0000      35.619204       969.2478 
 256   0.0000      35.665271       970.5014 
 257   0.0000      35.730318       972.2714 
 258   0.0000     123.508292      3360.8315 

                    ********************************
                    * MULLIKEN POPULATION ANALYSIS *
                    ********************************

-----------------------
MULLIKEN ATOMIC CHARGES
-----------------------
   0 C :   -0.223095
   1 N :   -0.308991
   2 H :    0.132824
   3 H :    0.176143
   4 H :    0.176142
   5 H :    0.267658
   6 H :    0.272027
   7 H :    0.258567
   8 Pb:    0.946361
   9 Cl:   -0.470794
  10 Cl:   -0.753073
  11 Cl:   -0.473770
Sum of atomic charges:   -0.0000000

--------------------------------
MULLIKEN REDUCED ORBITAL CHARGES
--------------------------------
  0 C s       :     3.251262  s :     3.251262
      pz      :     0.983343  p :     2.898862
      px      :     1.003636
      py      :     0.911884
      dz2     :     0.005456  d :     0.066871
      dxz     :     0.017905
      dyz     :     0.018899
      dx2y2   :     0.005791
      dxy     :     0.018820
      f0      :     0.000363  f :     0.006099
      f+1     :     0.000490
      f-1     :     0.000675
      f+2     :     0.000748
      f-2     :     0.002715
      f+3     :     0.000537
      f-3     :     0.000571
  1 N s       :     3.434986  s :     3.434986
      pz      :     1.276552  p :     3.820535
      px      :     1.273551
      py      :     1.270432
      dz2     :     0.005872  d :     0.051202
      dxz     :     0.013113
      dyz     :     0.012558
      dx2y2   :     0.006758
      dxy     :     0.012902
      f0      :     0.000132  f :     0.002268
      f+1     :     0.000179
      f-1     :     0.000213
      f+2     :     0.000236
      f-2     :     0.001152
      f+3     :     0.000171
      f-3     :     0.000184
  2 H s       :     0.845961  s :     0.845961
      pz      :     0.008179  p :     0.021215
      px      :     0.007661
      py      :     0.005374
  3 H s       :     0.801438  s :     0.801438
      pz      :     0.006590  p :     0.022419
      px      :     0.007736
      py      :     0.008093
  4 H s       :     0.801427  s :     0.801427
      pz      :     0.007144  p :     0.022431
      px      :     0.007090
      py      :     0.008197
  5 H s       :     0.699459  s :     0.699459
      pz      :     0.009558  p :     0.032883
      px      :     0.011823
      py      :     0.011502
  6 H s       :     0.694852  s :     0.694852
      pz      :     0.011515  p :     0.033122
      px      :     0.009877
      py      :     0.011730
  7 H s       :     0.692849  s :     0.692849
      pz      :     0.016683  p :     0.048584
      px      :     0.015683
      py      :     0.016217
  8 Pbs       :     3.967637  s :     3.967637
      pz      :     2.309363  p :     6.854805
      px      :     2.306113
      py      :     2.239330
      dz2     :     2.044687  d :    10.195616
      dxz     :     2.067213
      dyz     :     2.028070
      dx2y2   :     2.029113
      dxy     :     2.026532
      f0      :     0.004761  f :     0.035580
      f+1     :     0.009009
      f-1     :     0.002322
      f+2     :     0.007070
      f-2     :     0.007086
      f+3     :     0.002602
      f-3     :     0.002730
  9 Cls       :     5.959000  s :     5.959000
      pz      :     3.801671  p :    11.493887
      px      :     3.801227
      py      :     3.890989
      dz2     :     0.003989  d :     0.017236
      dxz     :     0.006979
      dyz     :     0.002755
      dx2y2   :     0.001977
      dxy     :     0.001536
      f0      :     0.000078  f :     0.000673
      f+1     :     0.000220
      f-1     :     0.000051
      f+2     :     0.000144
      f-2     :     0.000112
      f+3     :     0.000034
      f-3     :     0.000035
 10 Cls       :     5.964270  s :     5.964270
      pz      :     3.963894  p :    11.781832
      px      :     3.964915
      py      :     3.853023
      dz2     :     0.000963  d :     0.006665
      dxz     :     0.000573
      dyz     :     0.001609
      dx2y2   :     0.001967
      dxy     :     0.001553
      f0      :     0.000044  f :     0.000306
      f+1     :     0.000009
      f-1     :     0.000027
      f+2     :     0.000052
      f-2     :     0.000057
      f+3     :     0.000083
      f-3     :     0.000034
 11 Cls       :     5.958711  s :     5.958711
      pz      :     3.796835  p :    11.497329
      px      :     3.811805
      py      :     3.888690
      dz2     :     0.002817  d :     0.017053
      dxz     :     0.007288
      dyz     :     0.001431
      dx2y2   :     0.003194
      dxy     :     0.002322
      f0      :     0.000070  f :     0.000677
      f+1     :     0.000190
      f-1     :     0.000018
      f+2     :     0.000199
      f-2     :     0.000093
      f+3     :     0.000057
      f-3     :     0.000049


                     *******************************
                     * LOEWDIN POPULATION ANALYSIS *
                     *******************************

----------------------
LOEWDIN ATOMIC CHARGES
----------------------
   0 C :   -0.280717
   1 N :    0.092048
   2 H :    0.113827
   3 H :    0.133824
   4 H :    0.133853
   5 H :    0.193852
   6 H :    0.193133
   7 H :    0.116331
   8 Pb:    0.407561
   9 Cl:   -0.207743
  10 Cl:   -0.686779
  11 Cl:   -0.209190

-------------------------------
LOEWDIN REDUCED ORBITAL CHARGES
-------------------------------
  0 C s       :     2.859210  s :     2.859210
      pz      :     1.037804  p :     3.089231
      px      :     1.050415
      py      :     1.001012
      dz2     :     0.025780  d :     0.295357
      dxz     :     0.078962
      dyz     :     0.080921
      dx2y2   :     0.030298
      dxy     :     0.079396
      f0      :     0.005243  f :     0.036919
      f+1     :     0.003766
      f-1     :     0.005566
      f+2     :     0.004154
      f-2     :     0.007461
      f+3     :     0.004984
      f-3     :     0.005745
  1 N s       :     3.008433  s :     3.008433
      pz      :     1.245752  p :     3.723618
      px      :     1.241743
      py      :     1.236123
      dz2     :     0.018146  d :     0.166300
      dxz     :     0.040633
      dyz     :     0.043234
      dx2y2   :     0.019724
      dxy     :     0.044563
      f0      :     0.001542  f :     0.009600
      f+1     :     0.001120
      f-1     :     0.001399
      f+2     :     0.001049
      f-2     :     0.001703
      f+3     :     0.001283
      f-3     :     0.001504
  2 H s       :     0.824108  s :     0.824108
      pz      :     0.022922  p :     0.062066
      px      :     0.021822
      py      :     0.017322
  3 H s       :     0.802344  s :     0.802344
      pz      :     0.018672  p :     0.063831
      px      :     0.023331
      py      :     0.021828
  4 H s       :     0.802351  s :     0.802351
      pz      :     0.021640  p :     0.063797
      px      :     0.020090
      py      :     0.022066
  5 H s       :     0.709557  s :     0.709557
      pz      :     0.031044  p :     0.096590
      px      :     0.032846
      py      :     0.032700
  6 H s       :     0.708692  s :     0.708692
      pz      :     0.032091  p :     0.098175
      px      :     0.032612
      py      :     0.033473
  7 H s       :     0.720700  s :     0.720700
      pz      :     0.056657  p :     0.162969
      px      :     0.052851
      py      :     0.053461
  8 Pbs       :     3.846822  s :     3.846822
      pz      :     2.416257  p :     7.109105
      px      :     2.408629
      py      :     2.284218
      dz2     :     2.101311  d :    10.542981
      dxz     :     2.239119
      dyz     :     2.062080
      dx2y2   :     2.082934
      dxy     :     2.057537
      f0      :     0.010665  f :     0.093531
      f+1     :     0.026067
      f-1     :     0.005536
      f+2     :     0.021583
      f-2     :     0.017083
      f+3     :     0.006327
      f-3     :     0.006271
  9 Cls       :     5.782452  s :     5.782452
      pz      :     3.775651  p :    11.392155
      px      :     3.768644
      py      :     3.847860
      dz2     :     0.005528  d :     0.031618
      dxz     :     0.017088
      dyz     :     0.003905
      dx2y2   :     0.002817
      dxy     :     0.002280
      f0      :     0.000056  f :     0.001519
      f+1     :     0.000671
      f-1     :     0.000105
      f+2     :     0.000342
      f-2     :     0.000247
      f+3     :     0.000035
      f-3     :     0.000062
 10 Cls       :     5.926885  s :     5.926885
      pz      :     3.952070  p :    11.749839
      px      :     3.954075
      py      :     3.843693
      dz2     :     0.001261  d :     0.009518
      dxz     :     0.000619
      dyz     :     0.002444
      dx2y2   :     0.002827
      dxy     :     0.002366
      f0      :     0.000083  f :     0.000538
      f+1     :     0.000012
      f-1     :     0.000031
      f+2     :     0.000102
      f-2     :     0.000101
      f+3     :     0.000166
      f-3     :     0.000043
 11 Cls       :     5.782132  s :     5.782132
      pz      :     3.764953  p :    11.394138
      px      :     3.784175
      py      :     3.845010
      dz2     :     0.002318  d :     0.031401
      dxz     :     0.018569
      dyz     :     0.001506
      dx2y2   :     0.006642
      dxy     :     0.002367
      f0      :     0.000136  f :     0.001519
      f+1     :     0.000401
      f-1     :     0.000020
      f+2     :     0.000633
      f-2     :     0.000125
      f+3     :     0.000140
      f-3     :     0.000065


                      *****************************
                      * MAYER POPULATION ANALYSIS *
                      *****************************

  NA   - Mulliken gross atomic population
  ZA   - Total nuclear charge
  QA   - Mulliken gross atomic charge
  VA   - Mayer's total valence
  BVA  - Mayer's bonded valence
  FA   - Mayer's free valence

  ATOM       NA         ZA         QA         VA         BVA        FA
  0 C      6.2231     6.0000    -0.2231     3.7898     3.7898    -0.0000
  1 N      7.3090     7.0000    -0.3090     3.2931     3.2931     0.0000
  2 H      0.8672     1.0000     0.1328     0.9600     0.9600     0.0000
  3 H      0.8239     1.0000     0.1761     0.9848     0.9848     0.0000
  4 H      0.8239     1.0000     0.1761     0.9836     0.9836    -0.0000
  5 H      0.7323     1.0000     0.2677     0.9385     0.9385    -0.0000
  6 H      0.7280     1.0000     0.2720     0.9397     0.9397     0.0000
  7 H      0.7414     1.0000     0.2586     1.0790     1.0790    -0.0000
  8 Pb    21.0536    22.0000     0.9464     1.7821     1.7821     0.0000
  9 Cl    17.4708    17.0000    -0.4708     0.9206     0.9206     0.0000
 10 Cl    17.7531    17.0000    -0.7531     0.4432     0.4432    -0.0000
 11 Cl    17.4738    17.0000    -0.4738     0.9160     0.9160    -0.0000

  Mayer bond orders larger than 0.1
B(  0-C ,  1-N ) :   0.8832 B(  0-C ,  2-H ) :   0.9604 B(  0-C ,  3-H ) :   0.9618 
B(  0-C ,  4-H ) :   0.9624 B(  1-N ,  5-H ) :   0.8949 B(  1-N ,  6-H ) :   0.8913 
B(  1-N ,  7-H ) :   0.6919 B(  7-H , 10-Cl) :   0.3882 B(  8-Pb,  9-Cl) :   0.8734 
B(  8-Pb, 11-Cl) :   0.8738 

-------
TIMINGS
-------

Total SCF time: 0 days 0 hours 4 min 57 sec 

Total time                  ....     297.963 sec
Sum of individual times     ....     281.110 sec  ( 94.3%)

Fock matrix formation       ....     275.230 sec  ( 92.4%)
  Coulomb formation         ....     212.130 sec  ( 77.1% of F)
  Split-RI-J                ....      18.527 sec  (  6.7% of F)
  Chain of spheres X        ....     209.106 sec  ( 76.0% of F)
  COS-X 1 center corr.      ....       0.000 sec  (  0.0% of F)
  XC integration            ....      63.033 sec  ( 22.9% of F)
    Basis function eval.    ....      31.353 sec  ( 49.7% of XC)
    Density eval.           ....      11.765 sec  ( 18.7% of XC)
    XC-Functional eval.     ....       3.806 sec  (  6.0% of XC)
    XC-Potential eval.      ....      14.602 sec  ( 23.2% of XC)
Diagonalization             ....       0.679 sec  (  0.2%)
Density matrix formation    ....       0.046 sec  (  0.0%)
Population analysis         ....       0.069 sec  (  0.0%)
Initial guess               ....       0.114 sec  (  0.0%)
Orbital Transformation      ....       0.000 sec  (  0.0%)
Orbital Orthonormalization  ....       0.111 sec  (  0.0%)
DIIS solution               ....       0.166 sec  (  0.1%)
SOSCF solution              ....       0.081 sec  (  0.0%)
Grid generation             ....       4.725 sec  (  1.6%)

------------------------------------------------------------------------------
                              ORCA MP2 CALCULATION
------------------------------------------------------------------------------


----------------------
RI-MP2 ENERGY+GRADIENT
----------------------
Dimension of the basis                    ...  259
Memory devoted to MP2                     ... 1000 MB   
Data format for buffers                   ... DOUBLE
Compression type for matrix containers    ... UNCOMPRESSED
Overall scaling of the MP2 energy         ...   2.700e-01 Eh
Calculating two index integrals           ... done (    0.011 sec)
Cholesky decomposition of the V-matrix    ... done
Cholesky decomposition of V**-1           ... done (    0.020 sec)

-----------------
RI-TRANSFORMATION (AUX index driven)
-----------------

Dimension of the orbital-basis         ... 259
Dimension of the aux-basis             ... 493
Transformation of internal MOs         ...    0-  45
Transformation of internal/external MOs...    0-  45 to   46- 258
Number Format for Storage              ... Double (8 Byte)
Integral mode                          ... Direct

First Phase: integral generation and transformation of MO indices
  Aux angular momentum 0               ... done (    0.321 sec)
  Aux angular momentum 1               ... done (    0.260 sec)
  Aux angular momentum 2               ... done (    0.304 sec)
  Aux angular momentum 3               ... done (    0.182 sec)
  Aux angular momentum 4               ... done (    0.169 sec)
Closing buffer VIJ ( 0.00 GB; CompressionRatio= 1.95)
Closing buffer VIA ( 0.04 GB; CompressionRatio= 1.00)
  Phase 1 completed in     1.335 sec
Second Phase: sorting and transformation of aux index

IJ-Transformation
Memory available                       ... 990 MB 
Max. # MO pairs treated in a batch     ... 46    
# of internal orbitals                 ... 46
# batches for internal orbitals        ... 1
Closing buffer IJV ( 0.00 GB; CompressionRatio= 1.00)
(ij|v) transformation done in     0.087 sec

IA-Transformation
Memory available                       ... 990 MB 
Max. # MO pairs treated in a batch     ... 46    
# of internal orbitals                 ... 46
# batches for internal orbitals        ... 1
Closing buffer IAV ( 0.04 GB; CompressionRatio= 1.00)
(ia|v) transformation done in     0.338 sec

  Phase 2 completed in     0.527 sec
RI-Integral transformation completed in     1.863 sec
Opening buffers                              ... done

Starting loop over batches of integrals:

Operator 0  - window                       ... (  0- 45)x( 46-258)
Operator 0  - Memory available             ...  1000 MB
Operator 0  - Memory needed per MO         ...   1.6 MB
Operator 0  - Number of orbitals per batch ... 46
Operator 0  - Number of batches            ... 1

OPERATOR  0   PASS   0:  MOs     0 ...   45
  Reading integrals       ... ok
  Internal MO   2
  Internal MO   5
  Internal MO   8
  Internal MO  11
  Internal MO  14
  Internal MO  17
  Internal MO  20
  Internal MO  23
  Internal MO  26
  Internal MO  29
  Internal MO  32
  Internal MO  35
  Internal MO  38
  Internal MO  41
  Internal MO  44
Closing buffer GIPV ( 0.04 GB; CompressionRatio= 1.00)
Time spent in pair loops =    45.250 sec

-----------------------------------------------
 RI-MP2 CORRELATION ENERGY:     -0.575486438 Eh
-----------------------------------------------


---------------------
MP2 DENSITY FORMATION
---------------------

Completing the external part of the density      ... done
Storing the unrelaxed density                    ... done

Calculating the xc-kernel                        ... done
Calculating G(D)                                 ... done
Completing the Lagrangian                        ... done
Solving the Z-vector equations                   ... 

------------------------------------------------------------------------------
                           ORCA CP-SCF CALCULATION
------------------------------------------------------------------------------

Input orbitals are from        ... PbMACl3_mp2_md2_1.orca.gbw
Input Perturbation             ... PbMACl3_mp2_md2_1.orca.pin.tmp
Wavefunction output            ... PbMACl3_mp2_md2_1.orca.pout.tmp
Perturbation mode              ... Real perturbation
Solver                         ... DIIS
   MaxDIIS                     ... 20
   Levelshift                  ...    3.000e-01 Eh
Max. number of iterations      ... 128
Convergence tolerance          ... 1.000e-08
Integral handling              ... Direct
COSX GridX                     ... 1
Number of perturbations        ... 1
Number of operators            ... 1
Orbital ranges used for CP-SCF:
 Operator 0:  Orbitals   0... 45  to  46...258
DFT calculation                         ... on
Exchange functional (SCF)               ... B88
Exchange functional (CP-SCF)            ... B88
   X-Alpha parameter    XAlpha (SCF)    ...  0.666667
   X-Alpha parameter    XAlpha (CP-SCF) ...  0.666667
   Becke's b parameter  XBeta (SCF)     ...  0.004200
   Becke's b parameter  XBeta (CP-SCF)  ...  0.004200
Correlation functional (SCF)            ... LYP
Correlation functional (CP-SCF)         ... LYP
 LDA part of GGA corr.  LDAOpt (SCF)    ... VWN-3
 LDA part of GGA corr.  LDAOpt (CP-SCF) ... VWN-3
Hybrid DFT                              ... on
   Exchange mixing (SCF)                ...  0.530
   Exchange mixing (CP-SCF)             ...  0.530
   GGA exch. scaling(SCF)               ...  0.470
   GGA exch. scaling (CP-SCF)           ...  0.470
   GGA corr. scaling (SCF)              ...  0.730
   GGA corr. scaling (CP-SCF)           ...  0.730
The RIJCOSX approximation is active
Variables per vector in CP-SCF ... 9798
Number of vectors sought       ... 1
Calculating the xc-kernel      ... done

Solving the CP-SCF equations by a DIIS algorithm

-----------------
CP-SCF ITERATIONS
-----------------
  Iteration   0: MaxR=  0.091145884
  Iteration   1: MaxR=  0.040637426
  Iteration   2: MaxR=  0.009834138
  Iteration   3: MaxR=  0.005201955
  Iteration   4: MaxR=  0.003126973
  Iteration   5: MaxR=  0.001639484
  Iteration   6: MaxR=  0.000821507
  Iteration   7: MaxR=  0.000311668
  Iteration   8: MaxR=  0.000166475
  Iteration   9: MaxR=  0.000067994
  Iteration  10: MaxR=  0.000029662
  Iteration  11: MaxR=  0.000014471
  Iteration  12: MaxR=  0.000008221
  Iteration  13: MaxR=  0.000004430
  Iteration  14: MaxR=  0.000001717
  Iteration  15: MaxR=  0.000000757
  Iteration  16: MaxR=  0.000000349
  Iteration  17: MaxR=  0.000000173
  Iteration  18: MaxR=  0.000000076
  Iteration  19: MaxR=  0.000000031
  Iteration  20: MaxR=  0.000000015
  Iteration  21: MaxR=  0.000000008
                              *** THE CP-SCF HAS CONVERGED *** 
done
Finalizing the relaxed density                   ... done
Transforming P to the AO basis                   ... done
Storing the relaxed density                      ... done

------------------------------------
ENERGY WEIGHTED DENSITY FINALIZATION
------------------------------------

Gathering the parts of the W-matrix              ... done
Forming the Z-density                            ... done
Transforming Z to the AO basis                   ... done
Calculating G(Z)                                 ... done
Finalizing the W-matrix                          ... done
Transforming W to the AO basis and storing       ... done
Entering the RIJONX and RIJCOSX sections
Starting the three-index derivative integrals:
Operator 0  - Memory available             ...  1000 MB
Operator 0  - Memory needed per MO         ...   1.0 MB
Operator 0  - Number of orbitals per batch ... 46
Operator 0  - Number of batches            ... 1

OPERATOR  0   PASS   0:  MOs     0 ...   45

----------------------------------
MP2 DERIVATIVE INTEGRAL GENERATION
----------------------------------


Input Correlated Electron Density   ... PbMACl3_mp2_md2_1.orca.pmp2re
Input Energy Weighted Density       ... PbMACl3_mp2_md2_1.orca.wmp2.tmp
Input SCF Electron Density          ... PbMACl3_mp2_md2_1.orca.scfp.tmp

One-Electron Terms    ...
  ECP gradient                                           ... One-Electron Terms done

-----------------------------------------------------------
MP2 COSX Grid Generation
-----------------------------------------------------------

General Integration Accuracy     IntAcc      ...  4.340
Radial Grid Type                 RadialGrid  ... Gauss-Chebyshev
Angular Grid (max. acc.)         AngularGrid ... Lebedev-302
Angular grid pruning method      GridPruning ... 3 (G Style)
Weight generation scheme         WeightScheme... Becke
Basis function cutoff            BFCut       ...    1.0000e-11
Integration weight cutoff        WCut        ...    1.0000e-14
Grids for H and He will be reduced by one unit

# of grid points (after initial pruning)     ...  57718 (   0.0 sec)
# of grid points (after weights+screening)   ...  54880 (   0.1 sec)
nearest neighbour list constructed           ...    0.0 sec
Grid point re-assignment to atoms done       ...    0.0 sec
Grid point division into batches done        ...    0.2 sec
Reduced shell lists constructed in    1.4 sec

Total number of grid points                  ...    54880
Total number of batches                      ...      863
Average number of points per batch           ...       63
Average number of grid points per atom       ...     4573
Average number of shells per batch           ...    51.02 (50.51%)
Average number of basis functions per batch  ...   131.55 (50.79%)
Average number of large shells per batch     ...    37.93 (74.34%)
Average number of large basis fcns per batch ...    96.56 (73.40%)
Maximum spatial batch extension              ...  34.50, 35.78, 33.00 au
Average spatial batch extension              ...   3.22,  3.14,  3.13 au

Overlap Fitting                  UseSFitting ... on
Two electron COSX terms .... 
Integration Timings:
Total Time                  =    67.2 sec
Basis fcn evaluation        =     0.6 sec
Density evaluation          =     0.8 sec
Integral evaluation         =    64.5 sec
K(P) evaluation             =     0.6 sec
                          .... COSX two electron terms done
COSX two-electron contribution to the gradient
     0:    -0.014359    -0.039899    -0.017133
     1:     0.043215     0.123051     0.045026
     2:     0.098183    -0.072953     0.105295
     3:    -0.105566     0.100592     0.096049
     4:     0.102318     0.102100    -0.098273
     5:    -0.121898    -0.127401     0.100741
     6:     0.107415    -0.128775    -0.115914
     7:    -0.091645     0.023427    -0.097591
     8:     0.004852    -0.019442     0.003165
     9:     0.054901     0.010855    -0.064309
    10:    -0.014721     0.025345    -0.015222
    11:    -0.062697     0.002887     0.057888
Exchange-correlation gradient    ... done
Dispersion correction            ... 
Entering the calculation of the dispersion correction...

Checking the input atom types...

Done
done

                *********************************************
                * UNRELAXED MP2 DENSITY POPULATION ANALYSIS *
                *********************************************

------------------------------------------------------------------------------
                           ORCA POPULATION ANALYSIS
------------------------------------------------------------------------------
Input electron density              ... PbMACl3_mp2_md2_1.orca.pmp2ur
BaseName (.gbw .S,...)              ... PbMACl3_mp2_md2_1.orca

                    ********************************
                    * MULLIKEN POPULATION ANALYSIS *
                    ********************************

-----------------------
MULLIKEN ATOMIC CHARGES
-----------------------
   0 C :   -0.227708
   1 N :   -0.308091
   2 H :    0.133694
   3 H :    0.177063
   4 H :    0.177084
   5 H :    0.267253
   6 H :    0.271596
   7 H :    0.256538
   8 Pb:    0.925149
   9 Cl:   -0.460010
  10 Cl:   -0.749597
  11 Cl:   -0.462972
Sum of atomic charges:   -0.0000000

--------------------------------
MULLIKEN REDUCED ORBITAL CHARGES
--------------------------------
  0 C s       :     3.250029  s :     3.250029
      pz      :     0.981965  p :     2.894962
      px      :     1.002075
      py      :     0.910922
      dz2     :     0.007477  d :     0.075487
      dxz     :     0.019480
      dyz     :     0.020389
      dx2y2   :     0.007789
      dxy     :     0.020351
      f0      :     0.000518  f :     0.007230
      f+1     :     0.000664
      f-1     :     0.000846
      f+2     :     0.000929
      f-2     :     0.002836
      f+3     :     0.000701
      f-3     :     0.000737
  1 N s       :     3.432753  s :     3.432753
      pz      :     1.273083  p :     3.810230
      px      :     1.270187
      py      :     1.266960
      dz2     :     0.008106  d :     0.061810
      dxz     :     0.015162
      dyz     :     0.014613
      dx2y2   :     0.008993
      dxy     :     0.014936
      f0      :     0.000275  f :     0.003297
      f+1     :     0.000329
      f-1     :     0.000364
      f+2     :     0.000390
      f-2     :     0.001290
      f+3     :     0.000318
      f-3     :     0.000332
  2 H s       :     0.844040  s :     0.844040
      pz      :     0.008513  p :     0.022266
      px      :     0.007999
      py      :     0.005754
  3 H s       :     0.799563  s :     0.799563
      pz      :     0.006922  p :     0.023374
      px      :     0.008058
      py      :     0.008394
  4 H s       :     0.799531  s :     0.799531
      pz      :     0.007471  p :     0.023385
      px      :     0.007417
      py      :     0.008497
  5 H s       :     0.699190  s :     0.699190
      pz      :     0.009783  p :     0.033556
      px      :     0.012023
      py      :     0.011751
  6 H s       :     0.694621  s :     0.694621
      pz      :     0.011717  p :     0.033783
      px      :     0.010094
      py      :     0.011972
  7 H s       :     0.694312  s :     0.694312
      pz      :     0.016842  p :     0.049150
      px      :     0.015857
      py      :     0.016452
  8 Pbs       :     3.945627  s :     3.945627
      pz      :     2.321385  p :     6.893054
      px      :     2.318235
      py      :     2.253435
      dz2     :     2.038861  d :    10.164845
      dxz     :     2.060484
      dyz     :     2.022067
      dx2y2   :     2.022917
      dxy     :     2.020515
      f0      :     0.009911  f :     0.071325
      f+1     :     0.014126
      f-1     :     0.007420
      f+2     :     0.012146
      f-2     :     0.012204
      f+3     :     0.007694
      f-3     :     0.007823
  9 Cls       :     5.954045  s :     5.954045
      pz      :     3.786169  p :    11.447128
      px      :     3.785394
      py      :     3.875566
      dz2     :     0.011732  d :     0.055488
      dxz     :     0.014616
      dyz     :     0.010446
      dx2y2   :     0.009566
      dxy     :     0.009127
      f0      :     0.000470  f :     0.003349
      f+1     :     0.000610
      f-1     :     0.000435
      f+2     :     0.000527
      f-2     :     0.000496
      f+3     :     0.000405
      f-3     :     0.000406
 10 Cls       :     5.960018  s :     5.960018
      pz      :     3.950508  p :    11.741415
      px      :     3.951554
      py      :     3.839352
      dz2     :     0.008667  d :     0.045229
      dxz     :     0.008231
      dyz     :     0.009349
      dx2y2   :     0.009689
      dxy     :     0.009292
      f0      :     0.000417  f :     0.002936
      f+1     :     0.000380
      f-1     :     0.000404
      f+2     :     0.000429
      f-2     :     0.000433
      f+3     :     0.000461
      f-3     :     0.000412
 11 Cls       :     5.953759  s :     5.953759
      pz      :     3.781006  p :    11.450563
      px      :     3.796353
      py      :     3.873204
      dz2     :     0.010509  d :     0.055297
      dxz     :     0.014927
      dyz     :     0.009029
      dx2y2   :     0.010829
      dxy     :     0.010002
      f0      :     0.000453  f :     0.003353
      f+1     :     0.000583
      f-1     :     0.000391
      f+2     :     0.000580
      f-2     :     0.000479
      f+3     :     0.000437
      f-3     :     0.000430


                     *******************************
                     * LOEWDIN POPULATION ANALYSIS *
                     *******************************

----------------------
LOEWDIN ATOMIC CHARGES
----------------------
   0 C :   -0.283883
   1 N :    0.091094
   2 H :    0.114485
   3 H :    0.134515
   4 H :    0.134552
   5 H :    0.193534
   6 H :    0.192818
   7 H :    0.115480
   8 Pb:    0.388795
   9 Cl:   -0.198244
  10 Cl:   -0.683468
  11 Cl:   -0.199679

-------------------------------
LOEWDIN REDUCED ORBITAL CHARGES
-------------------------------
  0 C s       :     2.858614  s :     2.858614
      pz      :     1.035476  p :     3.082296
      px      :     1.047988
      py      :     0.998832
      dz2     :     0.027586  d :     0.304304
      dxz     :     0.080775
      dyz     :     0.082695
      dx2y2   :     0.032061
      dxy     :     0.081188
      f0      :     0.005467  f :     0.038668
      f+1     :     0.003982
      f-1     :     0.005777
      f+2     :     0.004366
      f-2     :     0.007913
      f+3     :     0.005208
      f-3     :     0.005956
  1 N s       :     3.007850  s :     3.007850
      pz      :     1.242139  p :     3.712725
      px      :     1.238196
      py      :     1.232390
      dz2     :     0.020116  d :     0.177411
      dxz     :     0.042992
      dyz     :     0.045656
      dx2y2   :     0.021696
      dxy     :     0.046951
      f0      :     0.001719  f :     0.010920
      f+1     :     0.001292
      f-1     :     0.001570
      f+2     :     0.001221
      f-2     :     0.001983
      f+3     :     0.001461
      f-3     :     0.001674
  2 H s       :     0.821546  s :     0.821546
      pz      :     0.023588  p :     0.063970
      px      :     0.022456
      py      :     0.017926
  3 H s       :     0.799906  s :     0.799906
      pz      :     0.019242  p :     0.065579
      px      :     0.023942
      py      :     0.022394
  4 H s       :     0.799905  s :     0.799905
      pz      :     0.022228  p :     0.065543
      px      :     0.020678
      py      :     0.022636
  5 H s       :     0.708361  s :     0.708361
      pz      :     0.031499  p :     0.098104
      px      :     0.033322
      py      :     0.033283
  6 H s       :     0.707522  s :     0.707522
      pz      :     0.032541  p :     0.099660
      px      :     0.033074
      py      :     0.034045
  7 H s       :     0.720471  s :     0.720471
      pz      :     0.057050  p :     0.164049
      px      :     0.053240
      py      :     0.053759
  8 Pbs       :     3.826368  s :     3.826368
      pz      :     2.427419  p :     7.145494
      px      :     2.419928
      py      :     2.298147
      dz2     :     2.095170  d :    10.509890
      dxz     :     2.230929
      dyz     :     2.055975
      dx2y2   :     2.076390
      dxy     :     2.051426
      f0      :     0.015814  f :     0.129454
      f+1     :     0.031293
      f-1     :     0.010631
      f+2     :     0.026765
      f-2     :     0.022162
      f+3     :     0.011433
      f-3     :     0.011356
  9 Cls       :     5.777760  s :     5.777760
      pz      :     3.760555  p :    11.346375
      px      :     3.753174
      py      :     3.832646
      dz2     :     0.013241  d :     0.069866
      dxz     :     0.024800
      dyz     :     0.011572
      dx2y2   :     0.010398
      dxy     :     0.009855
      f0      :     0.000452  f :     0.004243
      f+1     :     0.001079
      f-1     :     0.000493
      f+2     :     0.000735
      f-2     :     0.000640
      f+3     :     0.000408
      f-3     :     0.000436
 10 Cls       :     5.922443  s :     5.922443
      pz      :     3.938713  p :    11.709586
      px      :     3.940738
      py      :     3.830135
      dz2     :     0.009002  d :     0.048253
      dxz     :     0.008333
      dyz     :     0.010192
      dx2y2   :     0.010615
      dxy     :     0.010111
      f0      :     0.000459  f :     0.003186
      f+1     :     0.000384
      f-1     :     0.000410
      f+2     :     0.000481
      f-2     :     0.000481
      f+3     :     0.000548
      f-3     :     0.000423
 11 Cls       :     5.777440  s :     5.777440
      pz      :     3.749507  p :    11.348360
      px      :     3.769130
      py      :     3.829723
      dz2     :     0.009970  d :     0.069637
      dxz     :     0.026288
      dyz     :     0.009079
      dx2y2   :     0.014280
      dxy     :     0.010020
      f0      :     0.000523  f :     0.004243
      f+1     :     0.000807
      f-1     :     0.000393
      f+2     :     0.001030
      f-2     :     0.000517
      f+3     :     0.000524
      f-3     :     0.000448


                      *****************************
                      * MAYER POPULATION ANALYSIS *
                      *****************************

  NA   - Mulliken gross atomic population
  ZA   - Total nuclear charge
  QA   - Mulliken gross atomic charge
  VA   - Mayer's total valence
  BVA  - Mayer's bonded valence
  FA   - Mayer's free valence

  ATOM       NA         ZA         QA         VA         BVA        FA
  0 C      6.2277     6.0000    -0.2277     3.8360     3.7227     0.1134
  1 N      7.3081     7.0000    -0.3081     3.3683     3.2257     0.1426
  2 H      0.8663     1.0000     0.1337     0.9633     0.9438     0.0195
  3 H      0.8229     1.0000     0.1771     0.9871     0.9689     0.0182
  4 H      0.8229     1.0000     0.1771     0.9859     0.9678     0.0182
  5 H      0.7327     1.0000     0.2673     0.9412     0.9203     0.0209
  6 H      0.7284     1.0000     0.2716     0.9424     0.9217     0.0207
  7 H      0.7435     1.0000     0.2565     1.0818     1.0593     0.0225
  8 Pb    21.0749    22.0000     0.9251     2.1021     1.7222     0.3799
  9 Cl    17.4600    17.0000    -0.4600     1.1625     0.8882     0.2743
 10 Cl    17.7496    17.0000    -0.7496     0.6825     0.4328     0.2496
 11 Cl    17.4630    17.0000    -0.4630     1.1581     0.8838     0.2743

  Mayer bond orders larger than 0.1
B(  0-C ,  1-N ) :   0.8622 B(  0-C ,  2-H ) :   0.9451 B(  0-C ,  3-H ) :   0.9470 
B(  0-C ,  4-H ) :   0.9475 B(  1-N ,  5-H ) :   0.8782 B(  1-N ,  6-H ) :   0.8749 
B(  1-N ,  7-H ) :   0.6798 B(  7-H , 10-Cl) :   0.3807 B(  8-Pb,  9-Cl) :   0.8437 
B(  8-Pb, 11-Cl) :   0.8442 


                *******************************************
                * RELAXED MP2 DENSITY POPULATION ANALYSIS *
                *******************************************

------------------------------------------------------------------------------
                           ORCA POPULATION ANALYSIS
------------------------------------------------------------------------------
Input electron density              ... PbMACl3_mp2_md2_1.orca.pmp2re
BaseName (.gbw .S,...)              ... PbMACl3_mp2_md2_1.orca

                    ********************************
                    * MULLIKEN POPULATION ANALYSIS *
                    ********************************

-----------------------
MULLIKEN ATOMIC CHARGES
-----------------------
   0 C :   -0.244982
   1 N :   -0.303067
   2 H :    0.136882
   3 H :    0.179186
   4 H :    0.179196
   5 H :    0.265287
   6 H :    0.268993
   7 H :    0.248051
   8 Pb:    0.854258
   9 Cl:   -0.424807
  10 Cl:   -0.731289
  11 Cl:   -0.427710
Sum of atomic charges:   -0.0000000

--------------------------------
MULLIKEN REDUCED ORBITAL CHARGES
--------------------------------
  0 C s       :     3.251759  s :     3.251759
      pz      :     0.988820  p :     2.914856
      px      :     1.008560
      py      :     0.917476
      dz2     :     0.007631  d :     0.071305
      dxz     :     0.017821
      dyz     :     0.018966
      dx2y2   :     0.007951
      dxy     :     0.018935
      f0      :     0.000497  f :     0.007062
      f+1     :     0.000655
      f-1     :     0.000833
      f+2     :     0.000919
      f-2     :     0.002755
      f+3     :     0.000683
      f-3     :     0.000721
  1 N s       :     3.432471  s :     3.432471
      pz      :     1.272215  p :     3.807093
      px      :     1.269616
      py      :     1.265261
      dz2     :     0.008245  d :     0.060260
      dxz     :     0.014569
      dyz     :     0.014012
      dx2y2   :     0.009104
      dxy     :     0.014329
      f0      :     0.000271  f :     0.003243
      f+1     :     0.000328
      f-1     :     0.000364
      f+2     :     0.000389
      f-2     :     0.001246
      f+3     :     0.000313
      f-3     :     0.000332
  2 H s       :     0.841185  s :     0.841185
      pz      :     0.008335  p :     0.021933
      px      :     0.007854
      py      :     0.005744
  3 H s       :     0.797851  s :     0.797851
      pz      :     0.006818  p :     0.022963
      px      :     0.007919
      py      :     0.008226
  4 H s       :     0.797830  s :     0.797830
      pz      :     0.007363  p :     0.022974
      px      :     0.007286
      py      :     0.008324
  5 H s       :     0.701522  s :     0.701522
      pz      :     0.009721  p :     0.033191
      px      :     0.011814
      py      :     0.011656
  6 H s       :     0.697592  s :     0.697592
      pz      :     0.011521  p :     0.033414
      px      :     0.010025
      py      :     0.011868
  7 H s       :     0.703299  s :     0.703299
      pz      :     0.016627  p :     0.048650
      px      :     0.015674
      py      :     0.016349
  8 Pbs       :     3.949312  s :     3.949312
      pz      :     2.346315  p :     6.970720
      px      :     2.343054
      py      :     2.281351
      dz2     :     2.038141  d :    10.156467
      dxz     :     2.054920
      dyz     :     2.021562
      dx2y2   :     2.021772
      dxy     :     2.020073
      f0      :     0.009638  f :     0.069243
      f+1     :     0.013574
      f-1     :     0.007297
      f+2     :     0.011721
      f-2     :     0.011770
      f+3     :     0.007563
      f-3     :     0.007679
  9 Cls       :     5.955642  s :     5.955642
      pz      :     3.775294  p :    11.410609
      px      :     3.772662
      py      :     3.862652
      dz2     :     0.011650  d :     0.055203
      dxz     :     0.014515
      dyz     :     0.010435
      dx2y2   :     0.009481
      dxy     :     0.009121
      f0      :     0.000472  f :     0.003354
      f+1     :     0.000609
      f-1     :     0.000436
      f+2     :     0.000526
      f-2     :     0.000498
      f+3     :     0.000406
      f-3     :     0.000407
 10 Cls       :     5.960622  s :     5.960622
      pz      :     3.946920  p :    11.722424
      px      :     3.948039
      py      :     3.827464
      dz2     :     0.008658  d :     0.045292
      dxz     :     0.008245
      dyz     :     0.009388
      dx2y2   :     0.009672
      dxy     :     0.009330
      f0      :     0.000419  f :     0.002951
      f+1     :     0.000381
      f-1     :     0.000405
      f+2     :     0.000432
      f-2     :     0.000436
      f+3     :     0.000466
      f-3     :     0.000413
 11 Cls       :     5.955362  s :     5.955362
      pz      :     3.768548  p :    11.413973
      px      :     3.785731
      py      :     3.859695
      dz2     :     0.010394  d :     0.055017
      dxz     :     0.014861
      dyz     :     0.009004
      dx2y2   :     0.010800
      dxy     :     0.009957
      f0      :     0.000454  f :     0.003358
      f+1     :     0.000584
      f-1     :     0.000391
      f+2     :     0.000579
      f-2     :     0.000481
      f+3     :     0.000438
      f-3     :     0.000431


                     *******************************
                     * LOEWDIN POPULATION ANALYSIS *
                     *******************************

----------------------
LOEWDIN ATOMIC CHARGES
----------------------
   0 C :   -0.294339
   1 N :    0.087531
   2 H :    0.116357
   3 H :    0.135888
   4 H :    0.135922
   5 H :    0.193701
   6 H :    0.192696
   7 H :    0.112254
   8 Pb:    0.333179
   9 Cl:   -0.171135
  10 Cl:   -0.669566
  11 Cl:   -0.172488

-------------------------------
LOEWDIN REDUCED ORBITAL CHARGES
-------------------------------
  0 C s       :     2.860236  s :     2.860236
      pz      :     1.040087  p :     3.095910
      px      :     1.052419
      py      :     1.003405
      dz2     :     0.027766  d :     0.299792
      dxz     :     0.079192
      dyz     :     0.081029
      dx2y2   :     0.032214
      dxy     :     0.079590
      f0      :     0.005437  f :     0.038401
      f+1     :     0.003963
      f-1     :     0.005767
      f+2     :     0.004331
      f-2     :     0.007791
      f+3     :     0.005161
      f-3     :     0.005952
  1 N s       :     3.010098  s :     3.010098
      pz      :     1.242936  p :     3.714272
      px      :     1.239324
      py      :     1.232012
      dz2     :     0.020351  d :     0.177110
      dxz     :     0.042759
      dyz     :     0.045431
      dx2y2   :     0.021910
      dxy     :     0.046659
      f0      :     0.001733  f :     0.010989
      f+1     :     0.001299
      f-1     :     0.001580
      f+2     :     0.001221
      f-2     :     0.002001
      f+3     :     0.001468
      f-3     :     0.001687
  2 H s       :     0.819480  s :     0.819480
      pz      :     0.023592  p :     0.064162
      px      :     0.022481
      py      :     0.018089
  3 H s       :     0.798511  s :     0.798511
      pz      :     0.019266  p :     0.065601
      px      :     0.023964
      py      :     0.022371
  4 H s       :     0.798517  s :     0.798517
      pz      :     0.022277  p :     0.065560
      px      :     0.020677
      py      :     0.022607
  5 H s       :     0.708244  s :     0.708244
      pz      :     0.031536  p :     0.098056
      px      :     0.033138
      py      :     0.033382
  6 H s       :     0.707752  s :     0.707752
      pz      :     0.032351  p :     0.099552
      px      :     0.033090
      py      :     0.034111
  7 H s       :     0.723674  s :     0.723674
      pz      :     0.057087  p :     0.164072
      px      :     0.053281
      py      :     0.053704
  8 Pbs       :     3.830517  s :     3.830517
      pz      :     2.447504  p :     7.211151
      px      :     2.440053
      py      :     2.323594
      dz2     :     2.093849  d :    10.499473
      dxz     :     2.224821
      dyz     :     2.055175
      dx2y2   :     2.074947
      dxy     :     2.050681
      f0      :     0.015287  f :     0.125680
      f+1     :     0.030237
      f-1     :     0.010442
      f+2     :     0.025967
      f-2     :     0.021442
      f+3     :     0.011191
      f-3     :     0.011116
  9 Cls       :     5.781159  s :     5.781159
      pz      :     3.751812  p :    11.315245
      px      :     3.742277
      py      :     3.821157
      dz2     :     0.013327  d :     0.070441
      dxz     :     0.025118
      dyz     :     0.011658
      dx2y2   :     0.010420
      dxy     :     0.009919
      f0      :     0.000458  f :     0.004290
      f+1     :     0.001094
      f-1     :     0.000496
      f+2     :     0.000746
      f-2     :     0.000647
      f+3     :     0.000411
      f-3     :     0.000438
 10 Cls       :     5.923597  s :     5.923597
      pz      :     3.935996  p :    11.694326
      px      :     3.938078
      py      :     3.820252
      dz2     :     0.009015  d :     0.048438
      dxz     :     0.008350
      dyz     :     0.010252
      dx2y2   :     0.010652
      dxy     :     0.010169
      f0      :     0.000461  f :     0.003204
      f+1     :     0.000385
      f-1     :     0.000412
      f+2     :     0.000484
      f-2     :     0.000484
      f+3     :     0.000553
      f-3     :     0.000425
 11 Cls       :     5.780833  s :     5.780833
      pz      :     3.738923  p :    11.317150
      px      :     3.760589
      py      :     3.817638
      dz2     :     0.009980  d :     0.070215
      dxz     :     0.026660
      dyz     :     0.009113
      dx2y2   :     0.014407
      dxy     :     0.010054
      f0      :     0.000527  f :     0.004290
      f+1     :     0.000822
      f-1     :     0.000395
      f+2     :     0.001044
      f-2     :     0.000523
      f+3     :     0.000528
      f-3     :     0.000452


                      *****************************
                      * MAYER POPULATION ANALYSIS *
                      *****************************

  NA   - Mulliken gross atomic population
  ZA   - Total nuclear charge
  QA   - Mulliken gross atomic charge
  VA   - Mayer's total valence
  BVA  - Mayer's bonded valence
  FA   - Mayer's free valence

  ATOM       NA         ZA         QA         VA         BVA        FA
  0 C      6.2450     6.0000    -0.2450     3.8353     3.7222     0.1131
  1 N      7.3031     7.0000    -0.3031     3.3732     3.2310     0.1422
  2 H      0.8631     1.0000     0.1369     0.9632     0.9439     0.0194
  3 H      0.8208     1.0000     0.1792     0.9883     0.9702     0.0181
  4 H      0.8208     1.0000     0.1792     0.9871     0.9690     0.0181
  5 H      0.7347     1.0000     0.2653     0.9448     0.9242     0.0206
  6 H      0.7310     1.0000     0.2690     0.9463     0.9258     0.0204
  7 H      0.7519     1.0000     0.2481     1.0879     1.0657     0.0222
  8 Pb    21.1457    22.0000     0.8543     2.2061     1.8337     0.3724
  9 Cl    17.4248    17.0000    -0.4248     1.2222     0.9512     0.2709
 10 Cl    17.7313    17.0000    -0.7313     0.7139     0.4658     0.2481
 11 Cl    17.4277    17.0000    -0.4277     1.2179     0.9470     0.2709

  Mayer bond orders larger than 0.1
B(  0-C ,  1-N ) :   0.8715 B(  0-C ,  2-H ) :   0.9414 B(  0-C ,  3-H ) :   0.9441 
B(  0-C ,  4-H ) :   0.9447 B(  1-N ,  5-H ) :   0.8757 B(  1-N ,  6-H ) :   0.8728 
B(  1-N ,  7-H ) :   0.6748 B(  7-H , 10-Cl) :   0.3917 B(  8-Pb,  9-Cl) :   0.8954 
B(  8-Pb, 11-Cl) :   0.8965 


-------
TIMINGS
-------

Total time                :  461.807 sec
Integral trafo            :    1.872 sec (  0.4%)
I/O of integrals          :    0.139 sec (  0.0%)
K(i,j) Operators          :    6.044 sec (  1.3%)
T(i,j) pair energies      :    1.182 sec (  0.3%)
V-calculation             :    0.011 sec (  0.0%)
V**(-1/2)                 :    0.020 sec (  0.0%)
Gamma(ia|P)               :    5.426 sec (  1.2%)
Gamma-Trafo               :    0.767 sec (  0.2%)
D(virtual)                :    2.385 sec (  0.5%)
D(internal)               :    4.270 sec (  0.9%)
W(virtual)                :    4.782 sec (  1.0%)
W(internal)               :   14.995 sec (  3.2%)
L(virtual)                :    4.646 sec (  1.0%)
L(internal)               :    0.324 sec (  0.1%)
G(D)                      :   10.960 sec (  2.4%)
G(Z)                      :   11.072 sec (  2.4%)
Z-Vector Solution         :  308.197 sec ( 66.7%)
Z-Vector Solution         :  308.197 sec ( 66.7%)
3-Index Derivative 
+ Separable RIJ part      :    3.424 sec (  0.7%)
2-Index Derivative 
+ Separable RIJ part      :    0.026 sec (  0.0%)
Separable Gradient (COSX) :   78.886 sec ( 17.1%)


---------------------------------------
MP2 TOTAL ENERGY:    -1669.512363243 Eh
---------------------------------------

The final MP2 gradient
  0:  -0.00384424  -0.00234753  -0.00455003
  1:  -0.00222186   0.05637052  -0.00572065
  2:   0.00234425  -0.00038196   0.00273869
  3:  -0.00132738   0.00294524   0.00698041
  4:   0.00701442   0.00324377  -0.00065199
  5:  -0.01357444  -0.01714928   0.00118503
  6:   0.00022932  -0.01542160  -0.01146006
  7:   0.01204819  -0.03978674   0.01269977
  8:   0.00018399   0.01315990   0.00053859
  9:   0.00266055  -0.00593297  -0.00299427
 10:  -0.00157723   0.01147503  -0.00200042
 11:  -0.00193958  -0.00640303   0.00296739

-----------------------------------
NORM OF THE MP2 GRADIENT:  0.080893
-----------------------------------

Entering the calculation of the dispersion correction...

Checking the input atom types...

Done


-------------------------------------------------------------------------------
                          DFT DISPERSION CORRECTION                            
                                                                               
                                DFTD3 V2.1  Rev 6                               
                          USING Becke-Johnson damping                          
-------------------------------------------------------------------------------
The B2PLYP functional is recognized
Active option DFTDOPT                   ...         4   

molecular C6(AA) [au] = 4941.715340 


            DFT-D V3
 parameters
 s6 scaling factor         :     0.6400 
 a1 scaling factor         :     0.3065 
 s8 scaling factor         :     0.9147 
 a2 scaling factor         :     5.0570 
 ad hoc parameters k1-k3   :    16.0000     1.3333    -4.0000 

 Edisp/kcal,au: -6.327175349397  -0.010082994657 
 E6   /kcal   :  -3.008931993 
 E8   /kcal   :  -3.318243356 
 % E8         :  52.444308449 

-------------------------   ----------------
Dispersion correction           -0.010082995
-------------------------   ----------------


-------------------------   --------------------
FINAL SINGLE POINT ENERGY     -1669.522446238089
-------------------------   --------------------


                            ***************************************
                            *     ORCA property calculations      *
                            ***************************************


  WARNING: The energy has been calculated at the MP2 level but the densities
           used in the property calculations are still SCF densities
           MP2 response densities have not been calculated 
           use %mp2 Density relaxed end
           or  %mp2 Density unrelaxed end

                                    ---------------------
                                    Active property flags
                                    ---------------------
   (+) Dipole Moment


------------------------------------------------------------------------------
                       ORCA ELECTRIC PROPERTIES CALCULATION
------------------------------------------------------------------------------

Dipole Moment Calculation                       ... on
Quadrupole Moment Calculation                   ... off
Polarizability Calculation                      ... off
GBWName                                         ... PbMACl3_mp2_md2_1.orca.gbw
Electron density file                           ... PbMACl3_mp2_md2_1.orca.scfp.tmp

-------------
DIPOLE MOMENT
-------------
                                X             Y             Z
Electronic contribution:    -35.21308    -158.52226     -31.53864
Nuclear contribution   :     37.28326     155.19866      33.61818
                        -----------------------------------------
Total Dipole Moment    :      2.07017      -3.32360       2.07954
                        -----------------------------------------
Magnitude (a.u.)       :      4.43355
Magnitude (Debye)      :     11.26920


                         *** MP2 UNRELAXED DENSITY ***

------------------------------------------------------------------------------
                       ORCA ELECTRIC PROPERTIES CALCULATION
------------------------------------------------------------------------------

Dipole Moment Calculation                       ... on
Quadrupole Moment Calculation                   ... off
Polarizability Calculation                      ... off
GBWName                                         ... PbMACl3_mp2_md2_1.orca.gbw
Electron density file                           ... PbMACl3_mp2_md2_1.orca.pmp2ur

-------------
DIPOLE MOMENT
-------------
                                X             Y             Z
Electronic contribution:    -35.22399    -158.50139     -31.54883
Nuclear contribution   :     37.28326     155.19866      33.61818
                        -----------------------------------------
Total Dipole Moment    :      2.05926      -3.30273       2.06935
                        -----------------------------------------
Magnitude (a.u.)       :      4.40804
Magnitude (Debye)      :     11.20434


                           *** MP2 RELAXED DENSITY ***

------------------------------------------------------------------------------
                       ORCA ELECTRIC PROPERTIES CALCULATION
------------------------------------------------------------------------------

Dipole Moment Calculation                       ... on
Quadrupole Moment Calculation                   ... off
Polarizability Calculation                      ... off
GBWName                                         ... PbMACl3_mp2_md2_1.orca.gbw
Electron density file                           ... PbMACl3_mp2_md2_1.orca.pmp2re

-------------
DIPOLE MOMENT
-------------
                                X             Y             Z
Electronic contribution:    -35.26254    -158.43854     -31.58551
Nuclear contribution   :     37.28326     155.19866      33.61818
                        -----------------------------------------
Total Dipole Moment    :      2.02072      -3.23988       2.03267
                        -----------------------------------------
Magnitude (a.u.)       :      4.32572
Magnitude (Debye)      :     10.99511


Timings for individual modules:

Sum of individual times         ...      762.725 sec (=  12.712 min)
GTO integral calculation        ...        0.573 sec (=   0.010 min)   0.1 %
SCF iterations                  ...      298.146 sec (=   4.969 min)  39.1 %
MP2 module                      ...      464.005 sec (=   7.733 min)  60.8 %
                             ****ORCA TERMINATED NORMALLY****
TOTAL RUN TIME: 0 days 0 hours 12 minutes 43 seconds 297 msec
