
                                 *****************
                                 * O   R   C   A *
                                 *****************

           --- An Ab Initio, DFT and Semiempirical electronic structure package ---

                  #######################################################
                  #                        -***-                        #
                  #  Department of molecular theory and spectroscopy    #
                  #              Directorship: Frank Neese              #
                  # Max Planck Institute for Chemical Energy Conversion #
                  #                  D-45470 Muelheim/Ruhr              #
                  #                       Germany                       #
                  #                                                     #
                  #                  All rights reserved                #
                  #                        -***-                        #
                  #######################################################


                         Program Version 3.0.3 - RELEASE   -


 With contributions from (in alphabetic order):
   Ute Becker             : Parallelization
   Dmytro Bykov           : SCF Hessian
   Dmitry Ganyushin       : Spin-Orbit,Spin-Spin,Magnetic field MRCI
   Andreas Hansen         : Spin unrestricted coupled pair/coupled cluster methods
   Dimitrios Liakos       : Extrapolation schemes; parallel MDCI
   Robert Izsak           : Overlap fitted RIJCOSX, COSX-SCS-MP3
   Christian Kollmar      : KDIIS, OOCD, Brueckner-CCSD(T), CCSD density
   Simone Kossmann        : Meta GGA functionals, TD-DFT gradient, OOMP2, MP2 Hessian
   Taras Petrenko         : DFT Hessian,TD-DFT gradient, ASA and ECA modules, normal mode analysis, Resonance Raman, ABS, FL, XAS/XES, NRVS
   Christoph Reimann      : Effective Core Potentials
   Michael Roemelt        : Restricted open shell CIS
   Christoph Riplinger    : Improved optimizer, TS searches, QM/MM, DLPNO-CCSD
   Barbara Sandhoefer     : DKH picture change effects
   Igor Schapiro          : Molecular dynamics
   Kantharuban Sivalingam : CASSCF convergence, NEVPT2
   Boris Wezisla          : Elementary symmetry handling
   Frank Wennmohs         : Technical directorship


 We gratefully acknowledge several colleagues who have allowed us to
 interface, adapt or use parts of their codes:
   Stefan Grimme, W. Hujo, H. Kruse, T. Risthaus : VdW corrections, initial TS optimization,
                                                   DFT functionals, gCP
   Ed Valeev                                     : LibInt (2-el integral package), F12 methods
   Garnet Chan, S. Sharma, R. Olivares           : DMRG
   Ulf Ekstrom                                   : XCFun DFT Library
   Mihaly Kallay                                 : mrcc  (arbitrary order and MRCC methods)
   Andreas Klamt, Michael Diedenhofen            : otool_cosmo (COSMO solvation model)
   Frank Weinhold                                : gennbo (NPA and NBO analysis)
   Christopher J. Cramer and Donald G. Truhlar   : smd solvation model


 Your calculation uses the libint2 library for the computation of 2-el integrals
 For citations please refer to: http://libint.valeyev.net

 This ORCA versions uses:
   CBLAS   interface :  Fast vector & matrix operations
   LAPACKE interface :  Fast linear algebra routines
   SCALAPACK package :  Parallel linear algebra routines


Your calculation utilizes the basis: Ahlrichs-TZV
Cite in your paper:
H - Kr: A. Schaefer, H. Horn and R. Ahlrichs, J. Chem. Phys. 97, 2571 (1992).

The def2-TZV basis will be loaded
Cite in your paper:
 	F. Weigend, R. Ahlrichs, Phys. Chem. Chem. Phys. 2005, 7, 3297.

Your calculation utilizes the atom-pairwise dispersion correction
with the Becke-Johnson damping scheme (D3BJ)
Cite in your paper:
S.Grimme, S.Ehrlich, L.Goerigk, J Comput Chem, (2011), 32, 1456–1465 
S.Grimme, J.Antony, S.Ehrlich and H.Krieg, J.Chem.Phys., 132, (2010), 154104 
   

================================================================================
                                        WARNINGS
                       Please study these warnings very carefully!
================================================================================

WARNING: The RI method has been chosen with no auxiliary basis (AUX or GTOAUX in BASIS block)
        Standard TZV/J expansion basis used (GTOAUX=TZV_J)

Now building the actual basis set
cite the ECPs for Pb [SD(60,MDF)] as follows:
  B. Metz, H. Stoll, M. Dolg, J. Chem. Phys. 113, 2563 (2000).

ECP parameters for Pb [SD(60,MDF)] have been obtained from:
  pseudopotential library of the Stuttgart/Cologne group
  http://www.theochem.uni-stuttgart.de/pseudopotentials/

cite the ECP basis sets for Pb [DEF2-TZVP] as follows:
  F. Weigend, R. Ahlrichs; Phys. Chem. Chem. Phys. 7, 3297(2005).

ECP basis sets for Pb [DEF2-TZVP] have been obtained from:
  Turbomole basis set library
  ftp://ftp.chemie.uni-karlsruhe.de/pub/basen/



INFO   : the flag for use of LIBINT has been found!

================================================================================
                                       INPUT FILE
================================================================================
NAME = PbMACl3_mp2_md2_16.orca
|  1> ! RIJCOSX RI-B2PLYP D3BJ def2-TZVP ECP{def2-TZVP} TIGHTSCF Grid5 FinalGrid6 SlowConv MORead
|  2> %method
|  3>  RunTyp Gradient
|  4>  end
|  5> %maxcore 1000
|  6> %moinp "previous.gbw"
|  7> *xyz 0 1
|  8> C -0.394281 0.276013 -0.426662 
|  9> N -1.165380 -0.685592 -1.253010 
| 10> H 0.248796 -0.278576 0.260517 
| 11> H -1.090820 0.897444 0.140826 
| 12> H 0.215705 0.904875 -1.079130 
| 13> H -1.783150 -1.324970 -0.698370 
| 14> H -0.582260 -1.326300 -1.835140 
| 15> H -1.813140 -0.240924 -1.938260 
| 16> Pb -2.685870 -2.566790 -3.057330 
| 17> Cl -0.258548 -2.287160 -3.564680 
| 18> Cl -3.595220 -0.220418 -2.834470 
| 19> Cl -2.675200 -3.375560 -0.697103 
| 20> *
| 21> 
| 22>                          ****END OF INPUT****
================================================================================

                     *******************************
                     * Energy+Gradient Calculation *
                     *******************************

---------------------------------
CARTESIAN COORDINATES (ANGSTROEM)
---------------------------------
  C     -0.394281    0.276013   -0.426662
  N     -1.165380   -0.685592   -1.253010
  H      0.248796   -0.278576    0.260517
  H     -1.090820    0.897444    0.140826
  H      0.215705    0.904875   -1.079130
  H     -1.783150   -1.324970   -0.698370
  H     -0.582260   -1.326300   -1.835140
  H     -1.813140   -0.240924   -1.938260
  Pb    -2.685870   -2.566790   -3.057330
  Cl    -0.258548   -2.287160   -3.564680
  Cl    -3.595220   -0.220418   -2.834470
  Cl    -2.675200   -3.375560   -0.697103

----------------------------
CARTESIAN COORDINATES (A.U.)
----------------------------
  NO LB      ZA    FRAG    MASS        X           Y           Z
   0 C     6.0000    0    12.011         -0.745083109808605          0.521588979402006         -0.806274331751109
   1 N     7.0000    0    14.007         -2.202249041949148         -1.295581119607339         -2.367845743064668
   2 H     1.0000    0     1.008          0.470156303215072         -0.526432347483247          0.492305783230763
   3 H     1.0000    0     1.008         -2.061351061403979          1.695923380530824          0.266122572535594
   4 H     1.0000    0     1.008          0.407623375717484          1.709965935431992         -2.039260162898440
   5 H     1.0000    0     1.008         -3.369665155701680         -2.503830435661641         -1.319728040146585
   6 H     1.0000    0     1.008         -1.100311938736988         -2.506343771419756         -3.467912017404246
   7 H     1.0000    0     1.008         -3.426338042457978         -0.455280379088844         -3.662780576334205
   8 Pb   22.0000*   0   207.200  -5.075558731315073  -4.850530143287730  -5.777516401021460
   9 Cl   17.0000    0    35.453         -0.488584912473072         -4.322106024459330         -6.736268955066407
  10 Cl   17.0000    0    35.453         -6.793981191196362         -0.416529654986654         -5.356372034815770
  11 Cl   17.0000    0    35.453         -5.055395353466132         -6.378883948619221         -1.317333757134906
* core charge reduced due to ECP

--------------------------------
INTERNAL COORDINATES (ANGSTROEM)
--------------------------------
 C      0   0   0   0.000000     0.000     0.000
 N      1   0   0   1.483957     0.000     0.000
 H      1   2   0   1.092397   109.099     0.000
 H      1   2   3   1.092422   109.061   240.173
 H      1   2   3   1.092367   109.305   120.114
 H      2   1   3   1.047888   114.015    60.210
 H      2   1   3   1.043749   114.711   299.789
 H      2   1   3   1.042540   114.361   179.708
 Pb     8   2   1   2.724634    96.020   177.463
 Cl     7   2   1   2.004832   149.946   220.642
 Cl     8   2   1   1.994849   148.731   221.315
 Cl     6   2   1   2.236219   142.654   210.462

---------------------------
INTERNAL COORDINATES (A.U.)
---------------------------
 C      0   0   0   0.000000     0.000     0.000
 N      1   0   0   2.804273     0.000     0.000
 H      1   2   0   2.064332   109.099     0.000
 H      1   2   3   2.064378   109.061   240.173
 H      1   2   3   2.064274   109.305   120.114
 H      2   1   3   1.980222   114.015    60.210
 H      2   1   3   1.972399   114.711   299.789
 H      2   1   3   1.970116   114.361   179.708
 Pb     8   2   1   5.148811    96.020   177.463
 Cl     7   2   1   3.788583   149.946   220.642
 Cl     8   2   1   3.769718   148.731   221.315
 Cl     6   2   1   4.225841   142.654   210.462

---------------------
BASIS SET INFORMATION
---------------------
There are 5 groups of distinct atoms

 Group   1 Type C   : 11s6p2d1f contracted to 5s3p2d1f pattern {62111/411/11/1}
 Group   2 Type N   : 11s6p2d1f contracted to 5s3p2d1f pattern {62111/411/11/1}
 Group   3 Type H   : 5s1p contracted to 3s1p pattern {311/1}
 Group   4 Type Pb  : 10s9p8d2f contracted to 6s5p3d2f pattern {421111/33111/611/11}
 Group   5 Type Cl  : 14s9p3d1f contracted to 5s5p2d1f pattern {73211/51111/21/1}

Atom   0C    basis set group =>   1
Atom   1N    basis set group =>   2
Atom   2H    basis set group =>   3
Atom   3H    basis set group =>   3
Atom   4H    basis set group =>   3
Atom   5H    basis set group =>   3
Atom   6H    basis set group =>   3
Atom   7H    basis set group =>   3
Atom   8Pb   basis set group =>   4
Atom   9Cl   basis set group =>   5
Atom  10Cl   basis set group =>   5
Atom  11Cl   basis set group =>   5
-------------------------------
AUXILIARY BASIS SET INFORMATION
-------------------------------
There are 5 groups of distinct atoms

 Group   1 Type C   : 12s5p4d2f1g contracted to 6s4p3d1f1g pattern {711111/2111/211/2/1}
 Group   2 Type N   : 12s5p4d2f1g contracted to 6s4p3d1f1g pattern {711111/2111/211/2/1}
 Group   3 Type H   : 5s2p1d contracted to 3s1p1d pattern {311/2/1}
 Group   4 Type Pb  : 31s12p8d6f3g contracted to 31s12p8d6f3g pattern {1111111111111111111111111111111/111111111111/11111111/111111/111}
 Group   5 Type Cl  : 14s5p5d2f1g contracted to 8s4p3d1f1g pattern {71111111/2111/311/2/1}

Atom   0C    basis set group =>   1
Atom   1N    basis set group =>   2
Atom   2H    basis set group =>   3
Atom   3H    basis set group =>   3
Atom   4H    basis set group =>   3
Atom   5H    basis set group =>   3
Atom   6H    basis set group =>   3
Atom   7H    basis set group =>   3
Atom   8Pb   basis set group =>   4
Atom   9Cl   basis set group =>   5
Atom  10Cl   basis set group =>   5
Atom  11Cl   basis set group =>   5

-------------------------
ECP PARAMETER INFORMATION
-------------------------

 Group 1, Type Pb ECP SD(60,MDF) (replacing 60 core electrons, lmax=5)

Atom   8Pb   ECP group =>   1


------------------------------------------------------------------------------
                           ORCA GTO INTEGRAL CALCULATION
                           -- RI-GTO INTEGRALS CHOSEN --
------------------------------------------------------------------------------

                         BASIS SET STATISTICS AND STARTUP INFO

Gaussian basis set:
 # of primitive gaussian shells          ...  186
 # of primitive gaussian functions       ...  420
 # of contracted shells                  ...  101
 # of contracted basis functions         ...  259
 Highest angular momentum                ...    3
 Maximum contraction depth               ...    7
Auxiliary gaussian basis set:
 # of primitive gaussian shells          ...  237
 # of primitive gaussian functions       ...  643
 # of contracted shells                  ...  171
 # of contracted aux-basis functions     ...  493
 Highest angular momentum                ...    4
 Maximum contraction depth               ...    7
Ratio of auxiliary to basis functions    ...  1.90
Integral package used                  ... LIBINT
 One Electron integrals                  
   ECP integrals                         ... done
 Ordering auxiliary basis shells         ... done
 Integral threshhold             Thresh  ...  2.500e-11
 Primitive cut-off               TCut    ...  2.500e-12
 Pre-screening matrix                    ... done
 Shell pair data                         ... 
 Ordering of the shell pairs             ... done (   0.001 sec) 4497 of 5151 pairs
 Determination of significant pairs      ... done (   0.000 sec)
 Creation of shell pair data             ... done (   0.002 sec)
 Storage of shell pair data              ... done (   0.001 sec)
 Shell pair data done in (   0.004 sec)
 Computing two index integrals           ... done
 Cholesky decomposition of the V-matrix  ... done


Timings:
 Total evaluation time                   ...   0.580 sec (  0.010 min)
 One electron matrix time                ...   0.312 sec (  0.005 min) = 53.7%
 Schwartz matrix evaluation time         ...   0.220 sec (  0.004 min) = 37.9%
 Two index repulsion integral time       ...   0.009 sec (  0.000 min) =  1.5%
 Cholesky decomposition of V             ...   0.009 sec (  0.000 min) =  1.5%
 Three index repulsion integral time     ...   0.000 sec (  0.000 min) =  0.0%

-------------------------------------------------------------------------------
                                 ORCA SCF
-------------------------------------------------------------------------------

------------
SCF SETTINGS
------------
Hamiltonian:
 Density Functional     Method          .... DFT(GTOs)
 Exchange Functional    Exchange        .... B88
   X-Alpha parameter    XAlpha          ....  0.666667
   Becke's b parameter  XBeta           ....  0.004200
 Correlation Functional Correlation     .... LYP
 LDA part of GGA corr.  LDAOpt          .... VWN-3
 Gradients option       PostSCFGGA      .... off
 Hybrid DFT is turned on
   Fraction HF Exchange ScalHFX         ....  0.530000
   Scaling of DF-GGA-X  ScalDFX         ....  0.470000
   Scaling of DF-GGA-C  ScalDFC         ....  0.730000
   Scaling of DF-LDA-C  ScalLDAC        ....  0.730000
   Perturbative correction              ....  0.270000
 RI-approximation to the Coulomb term is turned on
   Number of auxiliary basis functions  .... 493
   RIJ-COSX (HFX calculated with COS-X)).... on


General Settings:
 Integral files         IntName         .... PbMACl3_mp2_md2_16.orca
 Hartree-Fock type      HFTyp           .... RHF
 Total Charge           Charge          ....    0
 Multiplicity           Mult            ....    1
 Number of Electrons    NEL             ....   92
 Basis Dimension        Dim             ....  259
 Nuclear Repulsion      ENuc            ....    613.1347791390 Eh

Convergence Acceleration:
 DIIS                   CNVDIIS         .... on
   Start iteration      DIISMaxIt       ....     0
   Startup error        DIISStart       ....  0.200000
   # of expansion vecs  DIISMaxEq       ....     5
   Bias factor          DIISBfac        ....   1.050
   Max. coefficient     DIISMaxC        ....  10.000
 Newton-Raphson         CNVNR           .... off
 SOSCF                  CNVSOSCF        .... on
   Start iteration      SOSCFMaxIt      ....   150
   Startup grad/error   SOSCFStart      ....  0.001000
 Level Shifting         CNVShift        .... on
   Level shift para.    LevelShift      ....    0.2500
   Turn off err/grad.   ShiftErr        ....    0.0000
 Zerner damping         CNVZerner       .... off
 Static damping         CNVDamp         .... on
   Fraction old density DampFac         ....    0.8500
   Max. Damping (<1)    DampMax         ....    0.9800
   Min. Damping (>=0)   DampMin         ....    0.0000
   Turn off err/grad.   DampErr         ....    0.0300
 Fernandez-Rico         CNVRico         .... off

SCF Procedure:
 Maximum # iterations   MaxIter         ....   125
 SCF integral mode      SCFMode         .... Direct
   Integral package                     .... LIBINT
 Reset frequeny         DirectResetFreq ....    20
 Integral Threshold     Thresh          ....  2.500e-11 Eh
 Primitive CutOff       TCut            ....  2.500e-12 Eh

Convergence Tolerance:
 Convergence Check Mode ConvCheckMode   .... Total+1el-Energy
 Energy Change          TolE            ....  1.000e-08 Eh
 1-El. energy change                    ....  1.000e-05 Eh
 Orbital Gradient       TolG            ....  1.000e-05
 Orbital Rotation angle TolX            ....  1.000e-05
 DIIS Error             TolErr          ....  5.000e-07


Diagonalization of the overlap matrix:
Smallest eigenvalue                        ... 1.057e-03
Time for diagonalization                   ...    0.019 sec
Threshold for overlap eigenvalues          ... 1.000e-08
Number of eigenvalues below threshold      ... 0
Time for construction of square roots      ...    0.006 sec
Total time needed                          ...    0.025 sec

---------------------
INITIAL GUESS: MOREAD
---------------------
Guess MOs are being read from file: previous.gbw
Input geometry compatible with but different from current geometry
Input basis set matches current basis set (good)
MOs were renormalized
MOs were reorthogonalized (Schmidt)
                      ------------------
                      INITIAL GUESS DONE (   0.1 sec)
                      ------------------
-------------------
DFT GRID GENERATION
-------------------

General Integration Accuracy     IntAcc      ...  5.010
Radial Grid Type                 RadialGrid  ... Gauss-Chebyshev
Angular Grid (max. acc.)         AngularGrid ... Lebedev-434
Angular grid pruning method      GridPruning ... 3 (G Style)
Weight generation scheme         WeightScheme... Becke
Basis function cutoff            BFCut       ...    1.0000e-11
Integration weight cutoff        WCut        ...    1.0000e-14
Grids for H and He will be reduced by one unit

# of grid points (after initial pruning)     ... 115882 (   0.0 sec)
# of grid points (after weights+screening)   ... 108501 (   0.2 sec)
nearest neighbour list constructed           ...    0.0 sec
Grid point re-assignment to atoms done       ...    0.0 sec
Grid point division into batches done        ...    0.9 sec
Reduced shell lists constructed in    3.4 sec

Total number of grid points                  ...   108501
Total number of batches                      ...     1701
Average number of points per batch           ...       63
Average number of grid points per atom       ...     9042
Average number of shells per batch           ...    56.22 (55.66%)
Average number of basis functions per batch  ...   149.03 (57.54%)
Average number of large shells per batch     ...    42.67 (75.90%)
Average number of large basis fcns per batch ...   109.97 (73.79%)
Maximum spatial batch extension              ...  31.51, 32.05, 30.99 au
Average spatial batch extension              ...   2.42,  2.41,  2.40 au

Time for grid setup =    3.712 sec

--------------------
COSX GRID GENERATION
--------------------

General Integration Accuracy     IntAcc      ...  3.340
Radial Grid Type                 RadialGrid  ... Gauss-Chebyshev
Angular Grid (max. acc.)         AngularGrid ... Lebedev-50
Angular grid pruning method      GridPruning ... 3 (G Style)
Weight generation scheme         WeightScheme... Becke
Basis function cutoff            BFCut       ...    1.0000e-11
Integration weight cutoff        WCut        ...    1.0000e-14
Grids for H and He will be reduced by one unit

# of grid points (after initial pruning)     ...   6578 (   0.0 sec)
# of grid points (after weights+screening)   ...   6199 (   0.0 sec)
nearest neighbour list constructed           ...    0.0 sec
Grid point re-assignment to atoms done       ...    0.0 sec
Grid point division into batches done        ...    0.0 sec
Reduced shell lists constructed in    0.2 sec

Total number of grid points                  ...     6199
Total number of batches                      ...      104
Average number of points per batch           ...       59
Average number of grid points per atom       ...      517
Average number of shells per batch           ...    67.92 (67.25%)
Average number of basis functions per batch  ...   182.69 (70.54%)
Average number of large shells per batch     ...    53.42 (78.65%)
Average number of large basis fcns per batch ...   140.49 (76.90%)
Maximum spatial batch extension              ...  40.64, 29.88, 29.48 au
Average spatial batch extension              ...   6.29,  6.11,  6.28 au

Overlap Fitting                  UseSFitting ... on
Constructing numerical overlap ... done (      0.1 sec)
Inverting numerical overlap    ... done (      0.0 sec)
Obtaining analytic overlap     ... done (      0.0 sec)
Final contraction and storage  ... done (      0.0 sec)


General Integration Accuracy     IntAcc      ...  3.670
Radial Grid Type                 RadialGrid  ... Gauss-Chebyshev
Angular Grid (max. acc.)         AngularGrid ... Lebedev-50
Angular grid pruning method      GridPruning ... 3 (G Style)
Weight generation scheme         WeightScheme... Becke
Basis function cutoff            BFCut       ...    1.0000e-11
Integration weight cutoff        WCut        ...    1.0000e-14
Grids for H and He will be reduced by one unit

# of grid points (after initial pruning)     ...   8124 (   0.0 sec)
# of grid points (after weights+screening)   ...   7632 (   0.0 sec)
nearest neighbour list constructed           ...    0.0 sec
Grid point re-assignment to atoms done       ...    0.0 sec
Grid point division into batches done        ...    0.0 sec
Reduced shell lists constructed in    0.2 sec

Total number of grid points                  ...     7632
Total number of batches                      ...      124
Average number of points per batch           ...       61
Average number of grid points per atom       ...      636
Average number of shells per batch           ...    67.10 (66.43%)
Average number of basis functions per batch  ...   180.10 (69.54%)
Average number of large shells per batch     ...    52.60 (78.40%)
Average number of large basis fcns per batch ...   137.59 (76.40%)
Maximum spatial batch extension              ...  42.24, 30.56, 30.39 au
Average spatial batch extension              ...   6.08,  5.71,  5.73 au

Overlap Fitting                  UseSFitting ... on
Constructing numerical overlap ... done (      0.1 sec)
Inverting numerical overlap    ... done (      0.0 sec)
Obtaining analytic overlap     ... done (      0.0 sec)
Final contraction and storage  ... done (      0.0 sec)


General Integration Accuracy     IntAcc      ...  4.010
Radial Grid Type                 RadialGrid  ... Gauss-Chebyshev
Angular Grid (max. acc.)         AngularGrid ... Lebedev-110
Angular grid pruning method      GridPruning ... 3 (G Style)
Weight generation scheme         WeightScheme... Becke
Basis function cutoff            BFCut       ...    1.0000e-11
Integration weight cutoff        WCut        ...    1.0000e-14
Grids for H and He will be reduced by one unit

# of grid points (after initial pruning)     ...  15170 (   0.0 sec)
# of grid points (after weights+screening)   ...  14360 (   0.0 sec)
nearest neighbour list constructed           ...    0.0 sec
Grid point re-assignment to atoms done       ...    0.0 sec
Grid point division into batches done        ...    0.0 sec
Reduced shell lists constructed in    0.4 sec

Total number of grid points                  ...    14360
Total number of batches                      ...      231
Average number of points per batch           ...       62
Average number of grid points per atom       ...     1197
Average number of shells per batch           ...    63.45 (62.82%)
Average number of basis functions per batch  ...   170.26 (65.74%)
Average number of large shells per batch     ...    49.16 (77.48%)
Average number of large basis fcns per batch ...   128.47 (75.46%)
Maximum spatial batch extension              ...  39.26, 31.28, 35.19 au
Average spatial batch extension              ...   4.87,  4.88,  4.77 au

Overlap Fitting                  UseSFitting ... on
Constructing numerical overlap ... done (      0.2 sec)
Inverting numerical overlap    ... done (      0.0 sec)
Obtaining analytic overlap     ... done (      0.0 sec)
Final contraction and storage  ... done (      0.0 sec)

Time for X-Grid setup             =    1.414 sec
--------------
SCF ITERATIONS
--------------
ITER       Energy         Delta-E        Max-DP      RMS-DP      [F,P]     Damp
               ***  Starting incremental Fock matrix formation  ***
  0  -1668.9582189485   0.000000000000 0.00585707  0.00019821  0.3103824 0.8500
  1  -1668.9662899405  -0.008070991956 0.00652843  0.00022319  0.2640871 0.8500
                               ***Turning on DIIS***
  2  -1668.9734913551  -0.007201414659 0.00703424  0.00020906  0.2245590 0.8500
  3  -1668.9796383796  -0.006147024473 0.00831829  0.00019471  0.1909390 0.8500
  4  -1668.9849486869  -0.005310307269 0.01065652  0.00018460  0.1623357 0.8500
  5  -1668.9895235118  -0.004574824888 0.01024820  0.00016926  0.1380033 0.8500
  6  -1668.9935127944  -0.003989282613 0.00899774  0.00015102  0.1173121 0.8500
  7  -1668.9970024279  -0.003489633485 0.00747142  0.00013240  0.0997203 0.8500
  8  -1669.0000531214  -0.003050693535 0.00648922  0.00011549  0.0847657 0.8500
  9  -1669.0027033972  -0.002650275787 0.00579390  0.00010035  0.0720534 0.8500
 10  -1669.0049989915  -0.002295594282 0.00511443  0.00008681  0.0612477 0.8500
 11  -1669.0069844975  -0.001985506002 0.00442095  0.00007482  0.0520626 0.8500
 12  -1669.0086993278  -0.001714830292 0.00377090  0.00006431  0.0442549 0.8500
 13  -1669.0101777059  -0.001478378112 0.00322087  0.00005521  0.0376180 0.8500
 14  -1669.0114497252  -0.001272019344 0.00276890  0.00004737  0.0319764 0.8500
 15  -1669.0125423056  -0.001092580367 0.01590726  0.00027084  0.0271809 0.0000
                      *** Initiating the SOSCF procedure ***
                           *** Shutting down DIIS ***
                      *** Re-Reading the Fockian *** 
                      *** Removing any level shift *** 
ITER      Energy       Delta-E        Grad      Rot      Max-DP    RMS-DP
 16  -1669.01894792  -0.0064056125  0.000175  0.000175  0.000587  0.000007
               *** Restarting incremental Fock matrix formation ***
 17  -1669.01894421   0.0000037051  0.000102  0.000295  0.000254  0.000005
 18  -1669.01894445  -0.0000002396  0.000032  0.000175  0.000254  0.000003
 19  -1669.01894446  -0.0000000084  0.000030  0.000039  0.000124  0.000001
                  ***Gradient check signals convergence***
              ***Rediagonalizing the Fockian in SOSCF/NRSCF***

               *****************************************************
               *                     SUCCESS                       *
               *           SCF CONVERGED AFTER  20 CYCLES          *
               *****************************************************

Old exchange energy                            =    -59.230431796 Eh
New exchange energy                            =    -59.232745168 Eh
Exchange energy change after final integration =     -0.002313372 Eh
Total energy after final integration           =  -1669.021257835 Eh
Final COS-X integration done in                =    20.448 sec

----------------
TOTAL SCF ENERGY
----------------

Total Energy       :        -1669.02125784 Eh          -45416.37735 eV

Components:
Nuclear Repulsion  :          613.13477914 Eh           16684.24555 eV
Electronic Energy  :        -2282.15603697 Eh          -62100.62290 eV

One Electron Energy:        -3596.39926145 Eh          -97862.99916 eV
Two Electron Energy:         1314.24322448 Eh           35762.37626 eV

Virial components:
Potential Energy   :        -3206.96098518 Eh          -87265.84492 eV
Kinetic Energy     :         1537.93972734 Eh           41849.46757 eV
Virial Ratio       :            2.08523190


DFT components:
N(Alpha)           :       45.999995018121 electrons
N(Beta)            :       45.999995018121 electrons
N(Total)           :       91.999990036242 electrons
E(X)               :      -52.600399953888 Eh       
E(C)               :       -2.613103660393 Eh       
E(XC)              :      -55.213503614281 Eh       

---------------
SCF CONVERGENCE
---------------

  Last Energy change         ...   -2.2692e-09  Tolerance :   1.0000e-08
  Last MAX-Density change    ...    6.7724e-14  Tolerance :   1.0000e-07
  Last RMS-Density change    ...    4.5767e-16  Tolerance :   5.0000e-09
  Last Orbital Gradient      ...    1.2751e-06  Tolerance :   1.0000e-05
  Last Orbital Rotation      ...    2.9454e-06  Tolerance :   1.0000e-05

             **** THE GBW FILE WAS UPDATED (PbMACl3_mp2_md2_16.orca.gbw) ****
             **** DENSITY FILE WAS UPDATED (PbMACl3_mp2_md2_16.orca.scfp.tmp) ****
             **** ENERGY FILE WAS UPDATED (PbMACl3_mp2_md2_16.orca.en.tmp) ****
----------------
ORBITAL ENERGIES
----------------

  NO   OCC          E(Eh)            E(eV) 
   0   2.0000    -102.867109     -2799.1563 
   1   2.0000    -102.864394     -2799.0825 
   2   2.0000    -102.862190     -2799.0225 
   3   2.0000     -14.957982      -407.0274 
   4   2.0000     -10.709451      -291.4190 
   5   2.0000      -9.875681      -268.7309 
   6   2.0000      -9.872734      -268.6508 
   7   2.0000      -9.870061      -268.5780 
   8   2.0000      -7.512587      -204.4279 
   9   2.0000      -7.511065      -204.3865 
  10   2.0000      -7.510565      -204.3729 
  11   2.0000      -7.509643      -204.3478 
  12   2.0000      -7.508173      -204.3078 
  13   2.0000      -7.507653      -204.2936 
  14   2.0000      -7.507147      -204.2799 
  15   2.0000      -7.505388      -204.2320 
  16   2.0000      -7.505003      -204.2215 
  17   2.0000      -5.798457      -157.7840 
  18   2.0000      -3.570265       -97.1519 
  19   2.0000      -3.568673       -97.1085 
  20   2.0000      -3.568460       -97.1027 
  21   2.0000      -1.143938       -31.1281 
  22   2.0000      -0.976255       -26.5653 
  23   2.0000      -0.974905       -26.5285 
  24   2.0000      -0.962369       -26.1874 
  25   2.0000      -0.958660       -26.0865 
  26   2.0000      -0.957877       -26.0652 
  27   2.0000      -0.908068       -24.7098 
  28   2.0000      -0.880174       -23.9508 
  29   2.0000      -0.873567       -23.7710 
  30   2.0000      -0.857722       -23.3398 
  31   2.0000      -0.670473       -18.2445 
  32   2.0000      -0.669436       -18.2163 
  33   2.0000      -0.608820       -16.5668 
  34   2.0000      -0.560080       -15.2405 
  35   2.0000      -0.522394       -14.2151 
  36   2.0000      -0.521582       -14.1930 
  37   2.0000      -0.403280       -10.9738 
  38   2.0000      -0.399851       -10.8805 
  39   2.0000      -0.381687       -10.3862 
  40   2.0000      -0.364771        -9.9259 
  41   2.0000      -0.364524        -9.9192 
  42   2.0000      -0.361678        -9.8418 
  43   2.0000      -0.358971        -9.7681 
  44   2.0000      -0.352473        -9.5913 
  45   2.0000      -0.290096        -7.8939 
  46   0.0000      -0.006032        -0.1641 
  47   0.0000       0.031199         0.8490 
  48   0.0000       0.033892         0.9223 
  49   0.0000       0.042026         1.1436 
  50   0.0000       0.089681         2.4404 
  51   0.0000       0.111089         3.0229 
  52   0.0000       0.111834         3.0432 
  53   0.0000       0.115161         3.1337 
  54   0.0000       0.135647         3.6911 
  55   0.0000       0.142623         3.8810 
  56   0.0000       0.152468         4.1489 
  57   0.0000       0.155231         4.2241 
  58   0.0000       0.179661         4.8888 
  59   0.0000       0.225589         6.1386 
  60   0.0000       0.227525         6.1913 
  61   0.0000       0.264400         7.1947 
  62   0.0000       0.268574         7.3083 
  63   0.0000       0.271245         7.3810 
  64   0.0000       0.276827         7.5329 
  65   0.0000       0.278599         7.5811 
  66   0.0000       0.284749         7.7484 
  67   0.0000       0.323520         8.8034 
  68   0.0000       0.328396         8.9361 
  69   0.0000       0.353183         9.6106 
  70   0.0000       0.392157        10.6711 
  71   0.0000       0.407721        11.0946 
  72   0.0000       0.413053        11.2397 
  73   0.0000       0.422618        11.5000 
  74   0.0000       0.428952        11.6724 
  75   0.0000       0.433043        11.7837 
  76   0.0000       0.433960        11.8087 
  77   0.0000       0.443894        12.0790 
  78   0.0000       0.447298        12.1716 
  79   0.0000       0.449213        12.2237 
  80   0.0000       0.482087        13.1183 
  81   0.0000       0.485034        13.1985 
  82   0.0000       0.493308        13.4236 
  83   0.0000       0.518971        14.1219 
  84   0.0000       0.521219        14.1831 
  85   0.0000       0.526056        14.3147 
  86   0.0000       0.527969        14.3668 
  87   0.0000       0.544058        14.8046 
  88   0.0000       0.556155        15.1338 
  89   0.0000       0.559188        15.2163 
  90   0.0000       0.574813        15.6414 
  91   0.0000       0.585977        15.9452 
  92   0.0000       0.590592        16.0708 
  93   0.0000       0.621722        16.9179 
  94   0.0000       0.627836        17.0843 
  95   0.0000       0.630210        17.1489 
  96   0.0000       0.644576        17.5398 
  97   0.0000       0.653822        17.7914 
  98   0.0000       0.691725        18.8228 
  99   0.0000       0.698878        19.0174 
 100   0.0000       0.705519        19.1982 
 101   0.0000       0.723722        19.6935 
 102   0.0000       0.771690        20.9988 
 103   0.0000       0.784525        21.3480 
 104   0.0000       0.803566        21.8662 
 105   0.0000       0.865165        23.5423 
 106   0.0000       0.870549        23.6889 
 107   0.0000       0.875664        23.8280 
 108   0.0000       0.893620        24.3166 
 109   0.0000       0.895925        24.3794 
 110   0.0000       0.910096        24.7650 
 111   0.0000       0.914302        24.8794 
 112   0.0000       0.918625        24.9971 
 113   0.0000       0.950116        25.8540 
 114   0.0000       0.974537        26.5185 
 115   0.0000       0.982786        26.7430 
 116   0.0000       1.027541        27.9608 
 117   0.0000       1.068223        29.0678 
 118   0.0000       1.069448        29.1012 
 119   0.0000       1.090959        29.6865 
 120   0.0000       1.094224        29.7753 
 121   0.0000       1.098448        29.8903 
 122   0.0000       1.122553        30.5462 
 123   0.0000       1.229310        33.4512 
 124   0.0000       1.232986        33.5512 
 125   0.0000       1.289162        35.0799 
 126   0.0000       1.311274        35.6816 
 127   0.0000       1.320639        35.9364 
 128   0.0000       1.390784        37.8452 
 129   0.0000       1.408623        38.3306 
 130   0.0000       1.490049        40.5463 
 131   0.0000       1.565969        42.6122 
 132   0.0000       1.577766        42.9332 
 133   0.0000       1.589969        43.2652 
 134   0.0000       1.595014        43.4025 
 135   0.0000       1.646222        44.7960 
 136   0.0000       1.746357        47.5208 
 137   0.0000       1.779360        48.4188 
 138   0.0000       1.794026        48.8179 
 139   0.0000       1.880688        51.1761 
 140   0.0000       1.886918        51.3457 
 141   0.0000       1.900757        51.7222 
 142   0.0000       1.932489        52.5857 
 143   0.0000       1.935197        52.6594 
 144   0.0000       1.939383        52.7733 
 145   0.0000       1.954394        53.1818 
 146   0.0000       1.961541        53.3763 
 147   0.0000       1.966361        53.5074 
 148   0.0000       1.984452        53.9997 
 149   0.0000       2.008235        54.6469 
 150   0.0000       2.021180        54.9991 
 151   0.0000       2.028417        55.1960 
 152   0.0000       2.034662        55.3660 
 153   0.0000       2.040223        55.5173 
 154   0.0000       2.092446        56.9384 
 155   0.0000       2.094581        56.9964 
 156   0.0000       2.100596        57.1601 
 157   0.0000       2.103841        57.2484 
 158   0.0000       2.111207        57.4489 
 159   0.0000       2.117031        57.6074 
 160   0.0000       2.129234        57.9394 
 161   0.0000       2.137104        58.1535 
 162   0.0000       2.145032        58.3693 
 163   0.0000       2.170040        59.0498 
 164   0.0000       2.180651        59.3385 
 165   0.0000       2.181950        59.3739 
 166   0.0000       2.207353        60.0651 
 167   0.0000       2.212424        60.2031 
 168   0.0000       2.225283        60.5530 
 169   0.0000       2.234459        60.8027 
 170   0.0000       2.238838        60.9219 
 171   0.0000       2.243546        61.0500 
 172   0.0000       2.258458        61.4558 
 173   0.0000       2.260747        61.5181 
 174   0.0000       2.262321        61.5609 
 175   0.0000       2.274064        61.8804 
 176   0.0000       2.284344        62.1602 
 177   0.0000       2.307811        62.7987 
 178   0.0000       2.316409        63.0327 
 179   0.0000       2.330220        63.4085 
 180   0.0000       2.371995        64.5453 
 181   0.0000       2.372952        64.5713 
 182   0.0000       2.378059        64.7103 
 183   0.0000       2.380515        64.7771 
 184   0.0000       2.396058        65.2001 
 185   0.0000       2.408946        65.5508 
 186   0.0000       2.413504        65.6748 
 187   0.0000       2.418310        65.8055 
 188   0.0000       2.428156        66.0735 
 189   0.0000       2.448098        66.6161 
 190   0.0000       2.456654        66.8490 
 191   0.0000       2.467519        67.1446 
 192   0.0000       2.480759        67.5049 
 193   0.0000       2.486554        67.6626 
 194   0.0000       2.515124        68.4400 
 195   0.0000       2.525459        68.7212 
 196   0.0000       2.556640        69.5697 
 197   0.0000       2.592324        70.5407 
 198   0.0000       2.599655        70.7402 
 199   0.0000       2.625835        71.4526 
 200   0.0000       2.636616        71.7460 
 201   0.0000       2.652932        72.1900 
 202   0.0000       2.673350        72.7455 
 203   0.0000       2.778614        75.6099 
 204   0.0000       2.790383        75.9302 
 205   0.0000       2.811236        76.4976 
 206   0.0000       2.838135        77.2296 
 207   0.0000       2.864022        77.9340 
 208   0.0000       2.899883        78.9098 
 209   0.0000       2.927917        79.6727 
 210   0.0000       2.947084        80.1942 
 211   0.0000       3.053662        83.0944 
 212   0.0000       3.146416        85.6183 
 213   0.0000       3.150482        85.7290 
 214   0.0000       3.228026        87.8390 
 215   0.0000       3.252287        88.4992 
 216   0.0000       3.304564        89.9218 
 217   0.0000       3.397265        92.4443 
 218   0.0000       3.411359        92.8278 
 219   0.0000       3.557062        96.7926 
 220   0.0000       3.583888        97.5225 
 221   0.0000       3.591749        97.7365 
 222   0.0000       3.782817       102.9357 
 223   0.0000       3.788050       103.0781 
 224   0.0000       3.929927       106.9387 
 225   0.0000       4.195049       114.1531 
 226   0.0000       4.202620       114.3591 
 227   0.0000       4.438347       120.7736 
 228   0.0000       4.457979       121.3078 
 229   0.0000       4.852735       132.0496 
 230   0.0000       4.857461       132.1782 
 231   0.0000       4.959532       134.9557 
 232   0.0000       4.974045       135.3507 
 233   0.0000       5.109761       139.0437 
 234   0.0000       5.127065       139.5145 
 235   0.0000       5.140197       139.8719 
 236   0.0000       5.329140       145.0133 
 237   0.0000       5.535818       150.6373 
 238   0.0000       5.548803       150.9906 
 239   0.0000       5.870318       159.7395 
 240   0.0000      11.040770       300.4346 
 241   0.0000      11.043415       300.5066 
 242   0.0000      11.055847       300.8449 
 243   0.0000      11.089203       301.7526 
 244   0.0000      11.107124       302.2402 
 245   0.0000      11.113090       302.4026 
 246   0.0000      11.165932       303.8405 
 247   0.0000      11.210894       305.0639 
 248   0.0000      11.217770       305.2510 
 249   0.0000      22.671107       616.9122 
 250   0.0000      25.294298       688.2928 
 251   0.0000      25.374213       690.4674 
 252   0.0000      25.493358       693.7095 
 253   0.0000      32.433356       882.5565 
 254   0.0000      35.565922       967.7979 
 255   0.0000      35.819918       974.7095 
 256   0.0000      35.826510       974.8889 
 257   0.0000      35.924564       977.5571 
 258   0.0000     123.630795      3364.1650 

                    ********************************
                    * MULLIKEN POPULATION ANALYSIS *
                    ********************************

-----------------------
MULLIKEN ATOMIC CHARGES
-----------------------
   0 C :   -0.263090
   1 N :   -0.320170
   2 H :    0.158290
   3 H :    0.159164
   4 H :    0.159144
   5 H :    0.294941
   6 H :    0.296708
   7 H :    0.297426
   8 Pb:    0.782016
   9 Cl:   -0.517932
  10 Cl:   -0.525500
  11 Cl:   -0.520996
Sum of atomic charges:   -0.0000000

--------------------------------
MULLIKEN REDUCED ORBITAL CHARGES
--------------------------------
  0 C s       :     3.282473  s :     3.282473
      pz      :     0.978124  p :     2.905074
      px      :     0.991045
      py      :     0.935905
      dz2     :     0.006936  d :     0.069406
      dxz     :     0.018336
      dyz     :     0.018106
      dx2y2   :     0.007673
      dxy     :     0.018355
      f0      :     0.000357  f :     0.006137
      f+1     :     0.000506
      f-1     :     0.000735
      f+2     :     0.000763
      f-2     :     0.002645
      f+3     :     0.000515
      f-3     :     0.000616
  1 N s       :     3.432401  s :     3.432401
      pz      :     1.280337  p :     3.839117
      px      :     1.286250
      py      :     1.272530
      dz2     :     0.005601  d :     0.046533
      dxz     :     0.012125
      dyz     :     0.011203
      dx2y2   :     0.006081
      dxy     :     0.011523
      f0      :     0.000105  f :     0.002120
      f+1     :     0.000161
      f-1     :     0.000191
      f+2     :     0.000210
      f-2     :     0.001127
      f+3     :     0.000157
      f-3     :     0.000168
  2 H s       :     0.819974  s :     0.819974
      pz      :     0.008295  p :     0.021736
      px      :     0.007779
      py      :     0.005662
  3 H s       :     0.819088  s :     0.819088
      pz      :     0.006908  p :     0.021748
      px      :     0.007358
      py      :     0.007483
  4 H s       :     0.819090  s :     0.819090
      pz      :     0.006784  p :     0.021766
      px      :     0.007413
      py      :     0.007569
  5 H s       :     0.665689  s :     0.665689
      pz      :     0.009637  p :     0.039371
      px      :     0.012932
      py      :     0.016801
  6 H s       :     0.657353  s :     0.657353
      pz      :     0.018832  p :     0.045939
      px      :     0.011429
      py      :     0.015678
  7 H s       :     0.656279  s :     0.656279
      pz      :     0.016622  p :     0.046295
      px      :     0.020938
      py      :     0.008736
  8 Pbs       :     3.924354  s :     3.924354
      pz      :     2.376110  p :     7.064541
      px      :     2.341873
      py      :     2.346558
      dz2     :     2.031207  d :    10.155875
      dxz     :     2.032387
      dyz     :     2.031200
      dx2y2   :     2.029187
      dxy     :     2.031894
      f0      :     0.014151  f :     0.073215
      f+1     :     0.010242
      f-1     :     0.011334
      f+2     :     0.007817
      f-2     :     0.004848
      f+3     :     0.012927
      f-3     :     0.011895
  9 Cls       :     5.953209  s :     5.953209
      pz      :     3.880953  p :    11.540398
      px      :     3.729220
      py      :     3.930225
      dz2     :     0.004674  d :     0.023282
      dxz     :     0.004743
      dyz     :     0.002418
      dx2y2   :     0.007932
      dxy     :     0.003515
      f0      :     0.000073  f :     0.001043
      f+1     :     0.000184
      f-1     :     0.000106
      f+2     :     0.000178
      f-2     :     0.000061
      f+3     :     0.000279
      f-3     :     0.000162
 10 Cls       :     5.954303  s :     5.954303
      pz      :     3.937348  p :    11.547861
      px      :     3.860608
      py      :     3.749905
      dz2     :     0.003128  d :     0.022361
      dxz     :     0.002910
      dyz     :     0.002658
      dx2y2   :     0.008060
      dxy     :     0.005606
      f0      :     0.000118  f :     0.000974
      f+1     :     0.000065
      f-1     :     0.000160
      f+2     :     0.000123
      f-2     :     0.000068
      f+3     :     0.000282
      f-3     :     0.000159
 11 Cls       :     5.953055  s :     5.953055
      pz      :     3.738575  p :    11.546057
      px      :     3.936377
      py      :     3.871105
      dz2     :     0.009574  d :     0.020939
      dxz     :     0.002681
      dyz     :     0.005390
      dx2y2   :     0.001647
      dxy     :     0.001646
      f0      :     0.000322  f :     0.000945
      f+1     :     0.000131
      f-1     :     0.000302
      f+2     :     0.000070
      f-2     :     0.000056
      f+3     :     0.000045
      f-3     :     0.000020


                     *******************************
                     * LOEWDIN POPULATION ANALYSIS *
                     *******************************

----------------------
LOEWDIN ATOMIC CHARGES
----------------------
   0 C :   -0.273719
   1 N :    0.066156
   2 H :    0.125403
   3 H :    0.125826
   4 H :    0.126208
   5 H :    0.175413
   6 H :    0.147988
   7 H :    0.146288
   8 Pb:   -0.110803
   9 Cl:   -0.163623
  10 Cl:   -0.182783
  11 Cl:   -0.182353

-------------------------------
LOEWDIN REDUCED ORBITAL CHARGES
-------------------------------
  0 C s       :     2.853097  s :     2.853097
      pz      :     1.032349  p :     3.080293
      px      :     1.042038
      py      :     1.005906
      dz2     :     0.028802  d :     0.303282
      dxz     :     0.079187
      dyz     :     0.081906
      dx2y2   :     0.032558
      dxy     :     0.080830
      f0      :     0.005245  f :     0.037048
      f+1     :     0.003945
      f-1     :     0.005713
      f+2     :     0.004385
      f-2     :     0.007019
      f+3     :     0.004896
      f-3     :     0.005844
  1 N s       :     3.001854  s :     3.001854
      pz      :     1.253375  p :     3.762291
      px      :     1.257918
      py      :     1.250998
      dz2     :     0.017491  d :     0.160186
      dxz     :     0.042258
      dyz     :     0.040474
      dx2y2   :     0.019146
      dxy     :     0.040817
      f0      :     0.001451  f :     0.009514
      f+1     :     0.001126
      f-1     :     0.001424
      f+2     :     0.001030
      f-2     :     0.001727
      f+3     :     0.001250
      f-3     :     0.001506
  2 H s       :     0.812366  s :     0.812366
      pz      :     0.022859  p :     0.062231
      px      :     0.021683
      py      :     0.017689
  3 H s       :     0.811877  s :     0.811877
      pz      :     0.019387  p :     0.062297
      px      :     0.022327
      py      :     0.020583
  4 H s       :     0.811509  s :     0.811509
      pz      :     0.020789  p :     0.062283
      px      :     0.020752
      py      :     0.020742
  5 H s       :     0.707625  s :     0.707625
      pz      :     0.032038  p :     0.116962
      px      :     0.038295
      py      :     0.046629
  6 H s       :     0.711185  s :     0.711185
      pz      :     0.055294  p :     0.140827
      px      :     0.038197
      py      :     0.047336
  7 H s       :     0.711451  s :     0.711451
      pz      :     0.050920  p :     0.142261
      px      :     0.062660
      py      :     0.028680
  8 Pbs       :     3.688011  s :     3.688011
      pz      :     2.536998  p :     7.541098
      px      :     2.507716
      py      :     2.496384
      dz2     :     2.157158  d :    10.660672
      dxz     :     2.109871
      dyz     :     2.116240
      dx2y2   :     2.154216
      dxy     :     2.123187
      f0      :     0.041593  f :     0.221022
      f+1     :     0.028172
      f-1     :     0.039806
      f+2     :     0.022157
      f-2     :     0.012147
      f+3     :     0.047257
      f-3     :     0.029890
  9 Cls       :     5.727789  s :     5.727789
      pz      :     3.816433  p :    11.389568
      px      :     3.706474
      py      :     3.866661
      dz2     :     0.009902  d :     0.043691
      dxz     :     0.005482
      dyz     :     0.004097
      dx2y2   :     0.019458
      dxy     :     0.004753
      f0      :     0.000187  f :     0.002576
      f+1     :     0.000537
      f-1     :     0.000293
      f+2     :     0.000331
      f-2     :     0.000089
      f+3     :     0.000838
      f-3     :     0.000301
 10 Cls       :     5.737414  s :     5.737414
      pz      :     3.877248  p :    11.401650
      px      :     3.797030
      py      :     3.727372
      dz2     :     0.006601  d :     0.041351
      dxz     :     0.004571
      dyz     :     0.003630
      dx2y2   :     0.017422
      dxy     :     0.009126
      f0      :     0.000204  f :     0.002368
      f+1     :     0.000097
      f-1     :     0.000443
      f+2     :     0.000329
      f-2     :     0.000097
      f+3     :     0.000824
      f-3     :     0.000373
 11 Cls       :     5.736293  s :     5.736293
      pz      :     3.714264  p :    11.405529
      px      :     3.878311
      py      :     3.812955
      dz2     :     0.023552  d :     0.038311
      dxz     :     0.002715
      dyz     :     0.008217
      dx2y2   :     0.001869
      dxy     :     0.001957
      f0      :     0.001006  f :     0.002219
      f+1     :     0.000163
      f-1     :     0.000781
      f+2     :     0.000093
      f-2     :     0.000061
      f+3     :     0.000089
      f-3     :     0.000026


                      *****************************
                      * MAYER POPULATION ANALYSIS *
                      *****************************

  NA   - Mulliken gross atomic population
  ZA   - Total nuclear charge
  QA   - Mulliken gross atomic charge
  VA   - Mayer's total valence
  BVA  - Mayer's bonded valence
  FA   - Mayer's free valence

  ATOM       NA         ZA         QA         VA         BVA        FA
  0 C      6.2631     6.0000    -0.2631     3.8441     3.8441     0.0000
  1 N      7.3202     7.0000    -0.3202     3.3126     3.3126     0.0000
  2 H      0.8417     1.0000     0.1583     0.9620     0.9620    -0.0000
  3 H      0.8408     1.0000     0.1592     0.9627     0.9627     0.0000
  4 H      0.8409     1.0000     0.1591     0.9637     0.9637     0.0000
  5 H      0.7051     1.0000     0.2949     0.9540     0.9540     0.0000
  6 H      0.7033     1.0000     0.2967     0.9623     0.9623     0.0000
  7 H      0.7026     1.0000     0.2974     0.9627     0.9627    -0.0000
  8 Pb    21.2180    22.0000     0.7820     2.0027     2.0027    -0.0000
  9 Cl    17.5179    17.0000    -0.5179     0.8221     0.8221    -0.0000
 10 Cl    17.5255    17.0000    -0.5255     0.8103     0.8103     0.0000
 11 Cl    17.5210    17.0000    -0.5210     0.8157     0.8157    -0.0000

  Mayer bond orders larger than 0.1
B(  0-C ,  1-N ) :   0.9025 B(  0-C ,  2-H ) :   0.9705 B(  0-C ,  3-H ) :   0.9697 
B(  0-C ,  4-H ) :   0.9702 B(  1-N ,  5-H ) :   0.8342 B(  1-N ,  6-H ) :   0.8011 
B(  1-N ,  7-H ) :   0.8000 B(  5-H , 11-Cl) :   0.1153 B(  6-H ,  9-Cl) :   0.1621 
B(  7-H , 10-Cl) :   0.1656 B(  8-Pb,  9-Cl) :   0.6514 B(  8-Pb, 10-Cl) :   0.6353 
B(  8-Pb, 11-Cl) :   0.6895 

-------
TIMINGS
-------

Total SCF time: 0 days 0 hours 4 min 46 sec 

Total time                  ....     286.938 sec
Sum of individual times     ....     265.506 sec  ( 92.5%)

Fock matrix formation       ....     259.429 sec  ( 90.4%)
  Coulomb formation         ....     200.606 sec  ( 77.3% of F)
  Split-RI-J                ....      17.874 sec  (  6.9% of F)
  Chain of spheres X        ....     203.113 sec  ( 78.3% of F)
  COS-X 1 center corr.      ....       0.000 sec  (  0.0% of F)
  XC integration            ....      58.881 sec  ( 22.7% of F)
    Basis function eval.    ....      27.760 sec  ( 47.1% of XC)
    Density eval.           ....      12.846 sec  ( 21.8% of XC)
    XC-Functional eval.     ....       3.201 sec  (  5.4% of XC)
    XC-Potential eval.      ....      13.951 sec  ( 23.7% of XC)
Diagonalization             ....       0.534 sec  (  0.2%)
Density matrix formation    ....       0.035 sec  (  0.0%)
Population analysis         ....       0.070 sec  (  0.0%)
Initial guess               ....       0.118 sec  (  0.0%)
Orbital Transformation      ....       0.000 sec  (  0.0%)
Orbital Orthonormalization  ....       0.115 sec  (  0.0%)
DIIS solution               ....       0.136 sec  (  0.0%)
SOSCF solution              ....       0.057 sec  (  0.0%)
Grid generation             ....       5.126 sec  (  1.8%)

------------------------------------------------------------------------------
                              ORCA MP2 CALCULATION
------------------------------------------------------------------------------


----------------------
RI-MP2 ENERGY+GRADIENT
----------------------
Dimension of the basis                    ...  259
Memory devoted to MP2                     ... 1000 MB   
Data format for buffers                   ... DOUBLE
Compression type for matrix containers    ... UNCOMPRESSED
Overall scaling of the MP2 energy         ...   2.700e-01 Eh
Calculating two index integrals           ... done (    0.013 sec)
Cholesky decomposition of the V-matrix    ... done
Cholesky decomposition of V**-1           ... done (    0.027 sec)

-----------------
RI-TRANSFORMATION (AUX index driven)
-----------------

Dimension of the orbital-basis         ... 259
Dimension of the aux-basis             ... 493
Transformation of internal MOs         ...    0-  45
Transformation of internal/external MOs...    0-  45 to   46- 258
Number Format for Storage              ... Double (8 Byte)
Integral mode                          ... Direct

First Phase: integral generation and transformation of MO indices
  Aux angular momentum 0               ... done (    0.413 sec)
  Aux angular momentum 1               ... done (    0.437 sec)
  Aux angular momentum 2               ... done (    0.544 sec)
  Aux angular momentum 3               ... done (    0.253 sec)
  Aux angular momentum 4               ... done (    0.227 sec)
Closing buffer VIJ ( 0.00 GB; CompressionRatio= 1.95)
Closing buffer VIA ( 0.04 GB; CompressionRatio= 1.00)
  Phase 1 completed in     1.978 sec
Second Phase: sorting and transformation of aux index

IJ-Transformation
Memory available                       ... 990 MB 
Max. # MO pairs treated in a batch     ... 46    
# of internal orbitals                 ... 46
# batches for internal orbitals        ... 1
Closing buffer IJV ( 0.00 GB; CompressionRatio= 1.00)
(ij|v) transformation done in     0.087 sec

IA-Transformation
Memory available                       ... 990 MB 
Max. # MO pairs treated in a batch     ... 46    
# of internal orbitals                 ... 46
# batches for internal orbitals        ... 1
Closing buffer IAV ( 0.04 GB; CompressionRatio= 1.00)
(ia|v) transformation done in     0.358 sec

  Phase 2 completed in     0.468 sec
RI-Integral transformation completed in     2.446 sec
Opening buffers                              ... done

Starting loop over batches of integrals:

Operator 0  - window                       ... (  0- 45)x( 46-258)
Operator 0  - Memory available             ...  1000 MB
Operator 0  - Memory needed per MO         ...   1.6 MB
Operator 0  - Number of orbitals per batch ... 46
Operator 0  - Number of batches            ... 1

OPERATOR  0   PASS   0:  MOs     0 ...   45
  Reading integrals       ... ok
  Internal MO   2
  Internal MO   5
  Internal MO   8
  Internal MO  11
  Internal MO  14
  Internal MO  17
  Internal MO  20
  Internal MO  23
  Internal MO  26
  Internal MO  29
  Internal MO  32
  Internal MO  35
  Internal MO  38
  Internal MO  41
  Internal MO  44
Closing buffer GIPV ( 0.04 GB; CompressionRatio= 1.00)
Time spent in pair loops =    45.394 sec

-----------------------------------------------
 RI-MP2 CORRELATION ENERGY:     -0.581901367 Eh
-----------------------------------------------


---------------------
MP2 DENSITY FORMATION
---------------------

Completing the external part of the density      ... done
Storing the unrelaxed density                    ... done

Calculating the xc-kernel                        ... done
Calculating G(D)                                 ... done
Completing the Lagrangian                        ... done
Solving the Z-vector equations                   ... 

------------------------------------------------------------------------------
                           ORCA CP-SCF CALCULATION
------------------------------------------------------------------------------

Input orbitals are from        ... PbMACl3_mp2_md2_16.orca.gbw
Input Perturbation             ... PbMACl3_mp2_md2_16.orca.pin.tmp
Wavefunction output            ... PbMACl3_mp2_md2_16.orca.pout.tmp
Perturbation mode              ... Real perturbation
Solver                         ... DIIS
   MaxDIIS                     ... 20
   Levelshift                  ...    3.000e-01 Eh
Max. number of iterations      ... 128
Convergence tolerance          ... 1.000e-08
Integral handling              ... Direct
COSX GridX                     ... 1
Number of perturbations        ... 1
Number of operators            ... 1
Orbital ranges used for CP-SCF:
 Operator 0:  Orbitals   0... 45  to  46...258
DFT calculation                         ... on
Exchange functional (SCF)               ... B88
Exchange functional (CP-SCF)            ... B88
   X-Alpha parameter    XAlpha (SCF)    ...  0.666667
   X-Alpha parameter    XAlpha (CP-SCF) ...  0.666667
   Becke's b parameter  XBeta (SCF)     ...  0.004200
   Becke's b parameter  XBeta (CP-SCF)  ...  0.004200
Correlation functional (SCF)            ... LYP
Correlation functional (CP-SCF)         ... LYP
 LDA part of GGA corr.  LDAOpt (SCF)    ... VWN-3
 LDA part of GGA corr.  LDAOpt (CP-SCF) ... VWN-3
Hybrid DFT                              ... on
   Exchange mixing (SCF)                ...  0.530
   Exchange mixing (CP-SCF)             ...  0.530
   GGA exch. scaling(SCF)               ...  0.470
   GGA exch. scaling (CP-SCF)           ...  0.470
   GGA corr. scaling (SCF)              ...  0.730
   GGA corr. scaling (CP-SCF)           ...  0.730
The RIJCOSX approximation is active
Variables per vector in CP-SCF ... 9798
Number of vectors sought       ... 1
Calculating the xc-kernel      ... done

Solving the CP-SCF equations by a DIIS algorithm

-----------------
CP-SCF ITERATIONS
-----------------
  Iteration   0: MaxR=  0.088570098
  Iteration   1: MaxR=  0.042034298
  Iteration   2: MaxR=  0.011859069
  Iteration   3: MaxR=  0.004719445
  Iteration   4: MaxR=  0.002070014
  Iteration   5: MaxR=  0.000791450
  Iteration   6: MaxR=  0.000315540
  Iteration   7: MaxR=  0.000093498
  Iteration   8: MaxR=  0.000034284
  Iteration   9: MaxR=  0.000009162
  Iteration  10: MaxR=  0.000003418
  Iteration  11: MaxR=  0.000001276
  Iteration  12: MaxR=  0.000000579
  Iteration  13: MaxR=  0.000000167
  Iteration  14: MaxR=  0.000000061
  Iteration  15: MaxR=  0.000000023
  Iteration  16: MaxR=  0.000000009
                              *** THE CP-SCF HAS CONVERGED *** 
done
Finalizing the relaxed density                   ... done
Transforming P to the AO basis                   ... done
Storing the relaxed density                      ... done

------------------------------------
ENERGY WEIGHTED DENSITY FINALIZATION
------------------------------------

Gathering the parts of the W-matrix              ... done
Forming the Z-density                            ... done
Transforming Z to the AO basis                   ... done
Calculating G(Z)                                 ... done
Finalizing the W-matrix                          ... done
Transforming W to the AO basis and storing       ... done
Entering the RIJONX and RIJCOSX sections
Starting the three-index derivative integrals:
Operator 0  - Memory available             ...  1000 MB
Operator 0  - Memory needed per MO         ...   1.0 MB
Operator 0  - Number of orbitals per batch ... 46
Operator 0  - Number of batches            ... 1

OPERATOR  0   PASS   0:  MOs     0 ...   45

----------------------------------
MP2 DERIVATIVE INTEGRAL GENERATION
----------------------------------


Input Correlated Electron Density   ... PbMACl3_mp2_md2_16.orca.pmp2re
Input Energy Weighted Density       ... PbMACl3_mp2_md2_16.orca.wmp2.tmp
Input SCF Electron Density          ... PbMACl3_mp2_md2_16.orca.scfp.tmp

One-Electron Terms    ...
  ECP gradient                                           ... One-Electron Terms done

-----------------------------------------------------------
MP2 COSX Grid Generation
-----------------------------------------------------------

General Integration Accuracy     IntAcc      ...  4.340
Radial Grid Type                 RadialGrid  ... Gauss-Chebyshev
Angular Grid (max. acc.)         AngularGrid ... Lebedev-302
Angular grid pruning method      GridPruning ... 3 (G Style)
Weight generation scheme         WeightScheme... Becke
Basis function cutoff            BFCut       ...    1.0000e-11
Integration weight cutoff        WCut        ...    1.0000e-14
Grids for H and He will be reduced by one unit

# of grid points (after initial pruning)     ...  57718 (   0.0 sec)
# of grid points (after weights+screening)   ...  54268 (   0.1 sec)
nearest neighbour list constructed           ...    0.0 sec
Grid point re-assignment to atoms done       ...    0.0 sec
Grid point division into batches done        ...    0.2 sec
Reduced shell lists constructed in    1.6 sec

Total number of grid points                  ...    54268
Total number of batches                      ...      855
Average number of points per batch           ...       63
Average number of grid points per atom       ...     4522
Average number of shells per batch           ...    58.03 (57.46%)
Average number of basis functions per batch  ...   154.52 (59.66%)
Average number of large shells per batch     ...    44.20 (76.16%)
Average number of large basis fcns per batch ...   114.55 (74.14%)
Maximum spatial batch extension              ...  40.43, 35.78, 32.85 au
Average spatial batch extension              ...   3.09,  3.08,  3.09 au

Overlap Fitting                  UseSFitting ... on
Two electron COSX terms .... 
Integration Timings:
Total Time                  =    88.5 sec
Basis fcn evaluation        =     0.7 sec
Density evaluation          =     1.1 sec
Integral evaluation         =    84.6 sec
K(P) evaluation             =     0.8 sec
                          .... COSX two electron terms done
COSX two-electron contribution to the gradient
     0:    -0.018526    -0.022630    -0.020853
     1:     0.057073     0.067913     0.046214
     2:     0.100255    -0.081776     0.107498
     3:    -0.103898     0.097710     0.089429
     4:     0.095860     0.099616    -0.096949
     5:    -0.112836    -0.114347     0.097246
     6:     0.092077    -0.111535    -0.097257
     7:    -0.106555     0.069439    -0.119426
     8:    -0.028422    -0.029090    -0.045334
     9:     0.066069     0.000154    -0.026045
    10:    -0.035907     0.057750    -0.001043
    11:    -0.004835    -0.034219     0.067123
Exchange-correlation gradient    ... done
Dispersion correction            ... 
Entering the calculation of the dispersion correction...

Checking the input atom types...

Done
done

                *********************************************
                * UNRELAXED MP2 DENSITY POPULATION ANALYSIS *
                *********************************************

------------------------------------------------------------------------------
                           ORCA POPULATION ANALYSIS
------------------------------------------------------------------------------
Input electron density              ... PbMACl3_mp2_md2_16.orca.pmp2ur
BaseName (.gbw .S,...)              ... PbMACl3_mp2_md2_16.orca

                    ********************************
                    * MULLIKEN POPULATION ANALYSIS *
                    ********************************

-----------------------
MULLIKEN ATOMIC CHARGES
-----------------------
   0 C :   -0.267474
   1 N :   -0.319211
   2 H :    0.159321
   3 H :    0.160170
   4 H :    0.160160
   5 H :    0.293845
   6 H :    0.295336
   7 H :    0.296040
   8 Pb:    0.767338
   9 Cl:   -0.511667
  10 Cl:   -0.519204
  11 Cl:   -0.514653
Sum of atomic charges:   -0.0000000

--------------------------------
MULLIKEN REDUCED ORBITAL CHARGES
--------------------------------
  0 C s       :     3.281251  s :     3.281251
      pz      :     0.976698  p :     2.900977
      px      :     0.989499
      py      :     0.934780
      dz2     :     0.008958  d :     0.077969
      dxz     :     0.019907
      dyz     :     0.019579
      dx2y2   :     0.009669
      dxy     :     0.019857
      f0      :     0.000514  f :     0.007277
      f+1     :     0.000680
      f-1     :     0.000906
      f+2     :     0.000945
      f-2     :     0.002770
      f+3     :     0.000681
      f-3     :     0.000781
  1 N s       :     3.430166  s :     3.430166
      pz      :     1.276671  p :     3.828150
      px      :     1.282627
      py      :     1.268852
      dz2     :     0.007943  d :     0.057726
      dxz     :     0.014282
      dyz     :     0.013383
      dx2y2   :     0.008433
      dxy     :     0.013686
      f0      :     0.000251  f :     0.003168
      f+1     :     0.000313
      f-1     :     0.000345
      f+2     :     0.000367
      f-2     :     0.001268
      f+3     :     0.000306
      f-3     :     0.000318
  2 H s       :     0.817932  s :     0.817932
      pz      :     0.008620  p :     0.022747
      px      :     0.008107
      py      :     0.006020
  3 H s       :     0.817072  s :     0.817072
      pz      :     0.007244  p :     0.022758
      px      :     0.007699
      py      :     0.007814
  4 H s       :     0.817067  s :     0.817067
      pz      :     0.007130  p :     0.022773
      px      :     0.007743
      py      :     0.007900
  5 H s       :     0.666170  s :     0.666170
      pz      :     0.009848  p :     0.039985
      px      :     0.013125
      py      :     0.017012
  6 H s       :     0.658080  s :     0.658080
      pz      :     0.019067  p :     0.046584
      px      :     0.011636
      py      :     0.015881
  7 H s       :     0.657017  s :     0.657017
      pz      :     0.016803  p :     0.046943
      px      :     0.021151
      py      :     0.008989
  8 Pbs       :     3.905751  s :     3.905751
      pz      :     2.383958  p :     7.089443
      px      :     2.350333
      py      :     2.355152
      dz2     :     2.025716  d :    10.128143
      dxz     :     2.026872
      dyz     :     2.025645
      dx2y2   :     2.023604
      dxy     :     2.026306
      f0      :     0.019287  f :     0.109325
      f+1     :     0.015444
      f-1     :     0.016418
      f+2     :     0.013034
      f-2     :     0.010033
      f+3     :     0.017971
      f-3     :     0.017137
  9 Cls       :     5.948655  s :     5.948655
      pz      :     3.866176  p :    11.496689
      px      :     3.714906
      py      :     3.915606
      dz2     :     0.012524  d :     0.062505
      dxz     :     0.012629
      dyz     :     0.010279
      dx2y2   :     0.015679
      dxy     :     0.011395
      f0      :     0.000469  f :     0.003819
      f+1     :     0.000587
      f-1     :     0.000494
      f+2     :     0.000576
      f-2     :     0.000456
      f+3     :     0.000673
      f-3     :     0.000564
 10 Cls       :     5.949751  s :     5.949751
      pz      :     3.922758  p :    11.504113
      px      :     3.845836
      py      :     3.735519
      dz2     :     0.010921  d :     0.061596
      dxz     :     0.010778
      dyz     :     0.010523
      dx2y2   :     0.015928
      dxy     :     0.013446
      f0      :     0.000505  f :     0.003744
      f+1     :     0.000450
      f-1     :     0.000547
      f+2     :     0.000523
      f-2     :     0.000462
      f+3     :     0.000688
      f-3     :     0.000568
 11 Cls       :     5.948478  s :     5.948478
      pz      :     3.724271  p :    11.502549
      px      :     3.921869
      py      :     3.856409
      dz2     :     0.017326  d :     0.059938
      dxz     :     0.010517
      dyz     :     0.013203
      dx2y2   :     0.009441
      dxy     :     0.009451
      f0      :     0.000724  f :     0.003688
      f+1     :     0.000531
      f-1     :     0.000705
      f+2     :     0.000459
      f-2     :     0.000446
      f+3     :     0.000425
      f-3     :     0.000398


                     *******************************
                     * LOEWDIN POPULATION ANALYSIS *
                     *******************************

----------------------
LOEWDIN ATOMIC CHARGES
----------------------
   0 C :   -0.276740
   1 N :    0.065269
   2 H :    0.126139
   3 H :    0.126555
   4 H :    0.126946
   5 H :    0.174813
   6 H :    0.147389
   7 H :    0.145697
   8 Pb:   -0.120522
   9 Cl:   -0.159332
  10 Cl:   -0.178365
  11 Cl:   -0.177849

-------------------------------
LOEWDIN REDUCED ORBITAL CHARGES
-------------------------------
  0 C s       :     2.852492  s :     2.852492
      pz      :     1.029968  p :     3.073238
      px      :     1.039584
      py      :     1.003686
      dz2     :     0.030599  d :     0.312200
      dxz     :     0.080997
      dyz     :     0.083674
      dx2y2   :     0.034324
      dxy     :     0.082606
      f0      :     0.005473  f :     0.038810
      f+1     :     0.004160
      f-1     :     0.005923
      f+2     :     0.004597
      f-2     :     0.007479
      f+3     :     0.005124
      f-3     :     0.006054
  1 N s       :     3.001355  s :     3.001355
      pz      :     1.249454  p :     3.750508
      px      :     1.254025
      py      :     1.247029
      dz2     :     0.019562  d :     0.171987
      dxz     :     0.044807
      dyz     :     0.043031
      dx2y2   :     0.021229
      dxy     :     0.043357
      f0      :     0.001634  f :     0.010880
      f+1     :     0.001305
      f-1     :     0.001599
      f+2     :     0.001209
      f-2     :     0.002017
      f+3     :     0.001435
      f-3     :     0.001682
  2 H s       :     0.809789  s :     0.809789
      pz      :     0.023510  p :     0.064072
      px      :     0.022302
      py      :     0.018260
  3 H s       :     0.809310  s :     0.809310
      pz      :     0.019967  p :     0.064135
      px      :     0.022970
      py      :     0.021199
  4 H s       :     0.808940  s :     0.808940
      pz      :     0.021406  p :     0.064114
      px      :     0.021349
      py      :     0.021360
  5 H s       :     0.706749  s :     0.706749
      pz      :     0.032493  p :     0.118437
      px      :     0.038790
      py      :     0.047154
  6 H s       :     0.710426  s :     0.710426
      pz      :     0.055712  p :     0.142185
      px      :     0.038656
      py      :     0.047817
  7 H s       :     0.710689  s :     0.710689
      pz      :     0.051408  p :     0.143614
      px      :     0.063084
      py      :     0.029122
  8 Pbs       :     3.671767  s :     3.671767
      pz      :     2.543270  p :     7.561435
      px      :     2.514633
      py      :     2.503531
      dz2     :     2.151146  d :    10.630428
      dxz     :     2.103881
      dyz     :     2.110197
      dx2y2   :     2.148119
      dxy     :     2.117084
      f0      :     0.046665  f :     0.256892
      f+1     :     0.033362
      f-1     :     0.044817
      f+2     :     0.027358
      f-2     :     0.017386
      f+3     :     0.052198
      f-3     :     0.035107
  9 Cls       :     5.723462  s :     5.723462
      pz      :     3.802220  p :    11.347439
      px      :     3.692793
      py      :     3.852427
      dz2     :     0.017817  d :     0.083006
      dxz     :     0.013365
      dyz     :     0.011957
      dx2y2   :     0.027304
      dxy     :     0.012563
      f0      :     0.000591  f :     0.005426
      f+1     :     0.000952
      f-1     :     0.000687
      f+2     :     0.000740
      f-2     :     0.000487
      f+3     :     0.001256
      f-3     :     0.000713
 10 Cls       :     5.733056  s :     5.733056
      pz      :     3.862998  p :    11.359422
      px      :     3.782879
      py      :     3.713545
      dz2     :     0.014456  d :     0.080682
      dxz     :     0.012429
      dyz     :     0.011438
      dx2y2   :     0.025310
      dxy     :     0.017050
      f0      :     0.000596  f :     0.005205
      f+1     :     0.000488
      f-1     :     0.000843
      f+2     :     0.000738
      f-2     :     0.000494
      f+3     :     0.001253
      f-3     :     0.000793
 11 Cls       :     5.731945  s :     5.731945
      pz      :     3.700553  p :    11.363428
      px      :     3.864132
      py      :     3.798743
      dz2     :     0.031381  d :     0.077441
      dxz     :     0.010493
      dyz     :     0.016098
      dx2y2   :     0.009700
      dxy     :     0.009770
      f0      :     0.001432  f :     0.005035
      f+1     :     0.000572
      f-1     :     0.001211
      f+2     :     0.000488
      f-2     :     0.000454
      f+3     :     0.000473
      f-3     :     0.000405


                      *****************************
                      * MAYER POPULATION ANALYSIS *
                      *****************************

  NA   - Mulliken gross atomic population
  ZA   - Total nuclear charge
  QA   - Mulliken gross atomic charge
  VA   - Mayer's total valence
  BVA  - Mayer's bonded valence
  FA   - Mayer's free valence

  ATOM       NA         ZA         QA         VA         BVA        FA
  0 C      6.2675     6.0000    -0.2675     3.8898     3.7749     0.1149
  1 N      7.3192     7.0000    -0.3192     3.3878     3.2415     0.1463
  2 H      0.8407     1.0000     0.1593     0.9646     0.9462     0.0185
  3 H      0.8398     1.0000     0.1602     0.9654     0.9469     0.0185
  4 H      0.8398     1.0000     0.1602     0.9664     0.9479     0.0184
  5 H      0.7062     1.0000     0.2938     0.9567     0.9359     0.0208
  6 H      0.7047     1.0000     0.2953     0.9650     0.9442     0.0208
  7 H      0.7040     1.0000     0.2960     0.9655     0.9447     0.0208
  8 Pb    21.2327    22.0000     0.7673     2.3086     1.9429     0.3658
  9 Cl    17.5117    17.0000    -0.5117     1.0571     0.7972     0.2599
 10 Cl    17.5192    17.0000    -0.5192     1.0460     0.7857     0.2603
 11 Cl    17.5147    17.0000    -0.5147     1.0510     0.7908     0.2602

  Mayer bond orders larger than 0.1
B(  0-C ,  1-N ) :   0.8800 B(  0-C ,  2-H ) :   0.9553 B(  0-C ,  3-H ) :   0.9545 
B(  0-C ,  4-H ) :   0.9551 B(  1-N ,  5-H ) :   0.8186 B(  1-N ,  6-H ) :   0.7862 
B(  1-N ,  7-H ) :   0.7853 B(  5-H , 11-Cl) :   0.1133 B(  6-H ,  9-Cl) :   0.1593 
B(  7-H , 10-Cl) :   0.1627 B(  8-Pb,  9-Cl) :   0.6317 B(  8-Pb, 10-Cl) :   0.6161 
B(  8-Pb, 11-Cl) :   0.6687 


                *******************************************
                * RELAXED MP2 DENSITY POPULATION ANALYSIS *
                *******************************************

------------------------------------------------------------------------------
                           ORCA POPULATION ANALYSIS
------------------------------------------------------------------------------
Input electron density              ... PbMACl3_mp2_md2_16.orca.pmp2re
BaseName (.gbw .S,...)              ... PbMACl3_mp2_md2_16.orca

                    ********************************
                    * MULLIKEN POPULATION ANALYSIS *
                    ********************************

-----------------------
MULLIKEN ATOMIC CHARGES
-----------------------
   0 C :   -0.285318
   1 N :   -0.313512
   2 H :    0.162867
   3 H :    0.163610
   4 H :    0.163685
   5 H :    0.287744
   6 H :    0.288497
   7 H :    0.289322
   8 Pb:    0.715693
   9 Cl:   -0.487410
  10 Cl:   -0.494837
  11 Cl:   -0.490342
Sum of atomic charges:   -0.0000000

--------------------------------
MULLIKEN REDUCED ORBITAL CHARGES
--------------------------------
  0 C s       :     3.283847  s :     3.283847
      pz      :     0.983228  p :     2.920601
      px      :     0.995657
      py      :     0.941716
      dz2     :     0.009143  d :     0.073757
      dxz     :     0.018355
      dyz     :     0.018059
      dx2y2   :     0.009857
      dxy     :     0.018344
      f0      :     0.000496  f :     0.007113
      f+1     :     0.000671
      f-1     :     0.000891
      f+2     :     0.000937
      f-2     :     0.002687
      f+3     :     0.000666
      f-3     :     0.000766
  1 N s       :     3.431064  s :     3.431064
      pz      :     1.274895  p :     3.822838
      px      :     1.281351
      py      :     1.266592
      dz2     :     0.008101  d :     0.056495
      dxz     :     0.013793
      dyz     :     0.012868
      dx2y2   :     0.008622
      dxy     :     0.013111
      f0      :     0.000247  f :     0.003116
      f+1     :     0.000312
      f-1     :     0.000346
      f+2     :     0.000366
      f-2     :     0.001223
      f+3     :     0.000302
      f-3     :     0.000319
  2 H s       :     0.814759  s :     0.814759
      pz      :     0.008440  p :     0.022374
      px      :     0.007960
      py      :     0.005974
  3 H s       :     0.814006  s :     0.814006
      pz      :     0.007145  p :     0.022384
      px      :     0.007559
      py      :     0.007679
  4 H s       :     0.813918  s :     0.813918
      pz      :     0.007023  p :     0.022397
      px      :     0.007617
      py      :     0.007758
  5 H s       :     0.672667  s :     0.672667
      pz      :     0.009758  p :     0.039589
      px      :     0.013000
      py      :     0.016832
  6 H s       :     0.665371  s :     0.665371
      pz      :     0.018892  p :     0.046132
      px      :     0.011521
      py      :     0.015719
  7 H s       :     0.664199  s :     0.664199
      pz      :     0.016608  p :     0.046479
      px      :     0.020910
      py      :     0.008961
  8 Pbs       :     3.921606  s :     3.921606
      pz      :     2.393580  p :     7.127597
      px      :     2.365029
      py      :     2.368988
      dz2     :     2.023865  d :    10.127431
      dxz     :     2.028135
      dyz     :     2.026319
      dx2y2   :     2.022137
      dxy     :     2.026975
      f0      :     0.018923  f :     0.107673
      f+1     :     0.015261
      f-1     :     0.016072
      f+2     :     0.012936
      f-2     :     0.010001
      f+3     :     0.017535
      f-3     :     0.016945
  9 Cls       :     5.949135  s :     5.949135
      pz      :     3.856338  p :    11.471807
      px      :     3.706415
      py      :     3.909054
      dz2     :     0.012619  d :     0.062629
      dxz     :     0.012531
      dyz     :     0.010423
      dx2y2   :     0.015572
      dxy     :     0.011485
      f0      :     0.000471  f :     0.003839
      f+1     :     0.000589
      f-1     :     0.000500
      f+2     :     0.000579
      f-2     :     0.000458
      f+3     :     0.000673
      f-3     :     0.000569
 10 Cls       :     5.950284  s :     5.950284
      pz      :     3.916637  p :    11.479071
      px      :     3.835670
      py      :     3.726764
      dz2     :     0.010848  d :     0.061717
      dxz     :     0.010927
      dyz     :     0.010604
      dx2y2   :     0.016098
      dxy     :     0.013241
      f0      :     0.000510  f :     0.003765
      f+1     :     0.000451
      f-1     :     0.000547
      f+2     :     0.000529
      f-2     :     0.000464
      f+3     :     0.000691
      f-3     :     0.000572
 11 Cls       :     5.949076  s :     5.949076
      pz      :     3.715480  p :    11.477677
      px      :     3.915743
      py      :     3.846453
      dz2     :     0.017355  d :     0.059886
      dxz     :     0.010564
      dyz     :     0.013004
      dx2y2   :     0.009458
      dxy     :     0.009505
      f0      :     0.000725  f :     0.003702
      f+1     :     0.000537
      f-1     :     0.000705
      f+2     :     0.000460
      f-2     :     0.000448
      f+3     :     0.000428
      f-3     :     0.000399


                     *******************************
                     * LOEWDIN POPULATION ANALYSIS *
                     *******************************

----------------------
LOEWDIN ATOMIC CHARGES
----------------------
   0 C :   -0.286734
   1 N :    0.061343
   2 H :    0.128094
   3 H :    0.128472
   4 H :    0.128882
   5 H :    0.173546
   6 H :    0.145858
   7 H :    0.144169
   8 Pb:   -0.145409
   9 Cl:   -0.147179
  10 Cl:   -0.165829
  11 Cl:   -0.165213

-------------------------------
LOEWDIN REDUCED ORBITAL CHARGES
-------------------------------
  0 C s       :     2.853819  s :     2.853819
      pz      :     1.034399  p :     3.086567
      px      :     1.043902
      py      :     1.008266
      dz2     :     0.030824  d :     0.307773
      dxz     :     0.079431
      dyz     :     0.082002
      dx2y2   :     0.034570
      dxy     :     0.080946
      f0      :     0.005454  f :     0.038575
      f+1     :     0.004140
      f-1     :     0.005904
      f+2     :     0.004563
      f-2     :     0.007378
      f+3     :     0.005094
      f-3     :     0.006041
  1 N s       :     3.003489  s :     3.003489
      pz      :     1.249955  p :     3.752003
      px      :     1.254747
      py      :     1.247301
      dz2     :     0.019808  d :     0.172206
      dxz     :     0.044735
      dyz     :     0.042926
      dx2y2   :     0.021518
      dxy     :     0.043220
      f0      :     0.001652  f :     0.010959
      f+1     :     0.001311
      f-1     :     0.001609
      f+2     :     0.001210
      f-2     :     0.002035
      f+3     :     0.001445
      f-3     :     0.001696
  2 H s       :     0.807752  s :     0.807752
      pz      :     0.023493  p :     0.064154
      px      :     0.022308
      py      :     0.018353
  3 H s       :     0.807314  s :     0.807314
      pz      :     0.020010  p :     0.064214
      px      :     0.022979
      py      :     0.021224
  4 H s       :     0.806934  s :     0.806934
      pz      :     0.021444  p :     0.064183
      px      :     0.021366
      py      :     0.021374
  5 H s       :     0.708082  s :     0.708082
      pz      :     0.032436  p :     0.118372
      px      :     0.038795
      py      :     0.047141
  6 H s       :     0.712123  s :     0.712123
      pz      :     0.055626  p :     0.142019
      px      :     0.038599
      py      :     0.047794
  7 H s       :     0.712392  s :     0.712392
      pz      :     0.051370  p :     0.143438
      px      :     0.062958
      py      :     0.029111
  8 Pbs       :     3.685530  s :     3.685530
      pz      :     2.547108  p :     7.581518
      px      :     2.523161
      py      :     2.511250
      dz2     :     2.147912  d :    10.623670
      dxz     :     2.104074
      dyz     :     2.109680
      dx2y2   :     2.145402
      dxy     :     2.116602
      f0      :     0.046229  f :     0.254691
      f+1     :     0.033068
      f-1     :     0.044432
      f+2     :     0.027191
      f-2     :     0.017253
      f+3     :     0.051716
      f-3     :     0.034801
  9 Cls       :     5.726792  s :     5.726792
      pz      :     3.795371  p :    11.330614
      px      :     3.687777
      py      :     3.847467
      dz2     :     0.018112  d :     0.084248
      dxz     :     0.013473
      dyz     :     0.012126
      dx2y2   :     0.027799
      dxy     :     0.012739
      f0      :     0.000601  f :     0.005525
      f+1     :     0.000968
      f-1     :     0.000695
      f+2     :     0.000757
      f-2     :     0.000491
      f+3     :     0.001289
      f-3     :     0.000725
 10 Cls       :     5.736359  s :     5.736359
      pz      :     3.858278  p :    11.342352
      px      :     3.775850
      py      :     3.708225
      dz2     :     0.014600  d :     0.081822
      dxz     :     0.012607
      dyz     :     0.011559
      dx2y2   :     0.025833
      dxy     :     0.017223
      f0      :     0.000603  f :     0.005295
      f+1     :     0.000492
      f-1     :     0.000862
      f+2     :     0.000745
      f-2     :     0.000499
      f+3     :     0.001288
      f-3     :     0.000805
 11 Cls       :     5.735238  s :     5.735238
      pz      :     3.695261  p :    11.346340
      px      :     3.859444
      py      :     3.791634
      dz2     :     0.032030  d :     0.078508
      dxz     :     0.010613
      dyz     :     0.016265
      dx2y2   :     0.009756
      dxy     :     0.009844
      f0      :     0.001464  f :     0.005128
      f+1     :     0.000582
      f-1     :     0.001249
      f+2     :     0.000493
      f-2     :     0.000457
      f+3     :     0.000476
      f-3     :     0.000407


                      *****************************
                      * MAYER POPULATION ANALYSIS *
                      *****************************

  NA   - Mulliken gross atomic population
  ZA   - Total nuclear charge
  QA   - Mulliken gross atomic charge
  VA   - Mayer's total valence
  BVA  - Mayer's bonded valence
  FA   - Mayer's free valence

  ATOM       NA         ZA         QA         VA         BVA        FA
  0 C      6.2853     6.0000    -0.2853     3.8917     3.7770     0.1146
  1 N      7.3135     7.0000    -0.3135     3.3961     3.2502     0.1459
  2 H      0.8371     1.0000     0.1629     0.9636     0.9452     0.0184
  3 H      0.8364     1.0000     0.1636     0.9645     0.9461     0.0184
  4 H      0.8363     1.0000     0.1637     0.9654     0.9470     0.0184
  5 H      0.7123     1.0000     0.2877     0.9631     0.9424     0.0207
  6 H      0.7115     1.0000     0.2885     0.9715     0.9508     0.0207
  7 H      0.7107     1.0000     0.2893     0.9718     0.9511     0.0207
  8 Pb    21.2843    22.0000     0.7157     2.3867     2.0262     0.3605
  9 Cl    17.4874    17.0000    -0.4874     1.1009     0.8423     0.2586
 10 Cl    17.4948    17.0000    -0.4948     1.0898     0.8309     0.2589
 11 Cl    17.4903    17.0000    -0.4903     1.0943     0.8355     0.2588

  Mayer bond orders larger than 0.1
B(  0-C ,  1-N ) :   0.8882 B(  0-C ,  2-H ) :   0.9525 B(  0-C ,  3-H ) :   0.9517 
B(  0-C ,  4-H ) :   0.9523 B(  1-N ,  5-H ) :   0.8152 B(  1-N ,  6-H ) :   0.7820 
B(  1-N ,  7-H ) :   0.7810 B(  5-H , 11-Cl) :   0.1228 B(  6-H ,  9-Cl) :   0.1699 
B(  7-H , 10-Cl) :   0.1735 B(  8-Pb,  9-Cl) :   0.6574 B(  8-Pb, 10-Cl) :   0.6414 
B(  8-Pb, 11-Cl) :   0.6966 


-------
TIMINGS
-------

Total time                :  546.754 sec
Integral trafo            :    2.458 sec (  0.4%)
I/O of integrals          :    0.168 sec (  0.0%)
K(i,j) Operators          :    6.178 sec (  1.1%)
T(i,j) pair energies      :    1.127 sec (  0.2%)
V-calculation             :    0.013 sec (  0.0%)
V**(-1/2)                 :    0.027 sec (  0.0%)
Gamma(ia|P)               :    5.550 sec (  1.0%)
Gamma-Trafo               :    0.806 sec (  0.1%)
D(virtual)                :    2.424 sec (  0.4%)
D(internal)               :    3.973 sec (  0.7%)
W(virtual)                :    4.970 sec (  0.9%)
W(internal)               :   13.947 sec (  2.6%)
L(virtual)                :    5.799 sec (  1.1%)
L(internal)               :    0.249 sec (  0.0%)
G(D)                      :   14.625 sec (  2.7%)
G(Z)                      :   14.268 sec (  2.6%)
Z-Vector Solution         :  360.330 sec ( 65.9%)
Z-Vector Solution         :  360.330 sec ( 65.9%)
3-Index Derivative 
+ Separable RIJ part      :    4.340 sec (  0.8%)
2-Index Derivative 
+ Separable RIJ part      :    0.029 sec (  0.0%)
Separable Gradient (COSX) :  103.875 sec ( 19.0%)


---------------------------------------
MP2 TOTAL ENERGY:    -1669.603159202 Eh
---------------------------------------

The final MP2 gradient
  0:  -0.00000332   0.00053540  -0.00097763
  1:  -0.00076442   0.00269101  -0.01461074
  2:   0.00264900  -0.00222734   0.00295406
  3:  -0.00267048   0.00246044   0.00280279
  4:   0.00281176   0.00328984  -0.00207352
  5:  -0.00988413  -0.00814931  -0.00015701
  6:  -0.00634653  -0.00762386  -0.00459496
  7:  -0.00167782  -0.00749644  -0.00742691
  8:   0.03628576   0.03737278   0.03882200
  9:  -0.02338287  -0.00225182   0.00439627
 10:   0.00676695  -0.01866468  -0.00013832
 11:  -0.00348669  -0.00094215  -0.01845638

-----------------------------------
NORM OF THE MP2 GRADIENT:  0.078897
-----------------------------------

Entering the calculation of the dispersion correction...

Checking the input atom types...

Done


-------------------------------------------------------------------------------
                          DFT DISPERSION CORRECTION                            
                                                                               
                                DFTD3 V2.1  Rev 6                               
                          USING Becke-Johnson damping                          
-------------------------------------------------------------------------------
The B2PLYP functional is recognized
Active option DFTDOPT                   ...         4   

molecular C6(AA) [au] = 4849.520020 


            DFT-D V3
 parameters
 s6 scaling factor         :     0.6400 
 a1 scaling factor         :     0.3065 
 s8 scaling factor         :     0.9147 
 a2 scaling factor         :     5.0570 
 ad hoc parameters k1-k3   :    16.0000     1.3333    -4.0000 

 Edisp/kcal,au: -9.046587167303  -0.014416652778 
 E6   /kcal   :  -4.147895102 
 E8   /kcal   :  -4.898692066 
 % E8         :  54.149614381 

-------------------------   ----------------
Dispersion correction           -0.014416653
-------------------------   ----------------


-------------------------   --------------------
FINAL SINGLE POINT ENERGY     -1669.617575855268
-------------------------   --------------------


                            ***************************************
                            *     ORCA property calculations      *
                            ***************************************


  WARNING: The energy has been calculated at the MP2 level but the densities
           used in the property calculations are still SCF densities
           MP2 response densities have not been calculated 
           use %mp2 Density relaxed end
           or  %mp2 Density unrelaxed end

                                    ---------------------
                                    Active property flags
                                    ---------------------
   (+) Dipole Moment


------------------------------------------------------------------------------
                       ORCA ELECTRIC PROPERTIES CALCULATION
------------------------------------------------------------------------------

Dipole Moment Calculation                       ... on
Quadrupole Moment Calculation                   ... off
Polarizability Calculation                      ... off
GBWName                                         ... PbMACl3_mp2_md2_16.orca.gbw
Electron density file                           ... PbMACl3_mp2_md2_16.orca.scfp.tmp

-------------
DIPOLE MOMENT
-------------
                                X             Y             Z
Electronic contribution:    -58.08491     -70.90791     -72.11318
Nuclear contribution   :     59.02381      72.06150      72.99864
                        -----------------------------------------
Total Dipole Moment    :      0.93890       1.15359       0.88546
                        -----------------------------------------
Magnitude (a.u.)       :      1.73099
Magnitude (Debye)      :      4.39984


                         *** MP2 UNRELAXED DENSITY ***

------------------------------------------------------------------------------
                       ORCA ELECTRIC PROPERTIES CALCULATION
------------------------------------------------------------------------------

Dipole Moment Calculation                       ... on
Quadrupole Moment Calculation                   ... off
Polarizability Calculation                      ... off
GBWName                                         ... PbMACl3_mp2_md2_16.orca.gbw
Electron density file                           ... PbMACl3_mp2_md2_16.orca.pmp2ur

-------------
DIPOLE MOMENT
-------------
                                X             Y             Z
Electronic contribution:    -58.08392     -70.90663     -72.10927
Nuclear contribution   :     59.02381      72.06150      72.99864
                        -----------------------------------------
Total Dipole Moment    :      0.93989       1.15487       0.88937
                        -----------------------------------------
Magnitude (a.u.)       :      1.73439
Magnitude (Debye)      :      4.40846


                           *** MP2 RELAXED DENSITY ***

------------------------------------------------------------------------------
                       ORCA ELECTRIC PROPERTIES CALCULATION
------------------------------------------------------------------------------

Dipole Moment Calculation                       ... on
Quadrupole Moment Calculation                   ... off
Polarizability Calculation                      ... off
GBWName                                         ... PbMACl3_mp2_md2_16.orca.gbw
Electron density file                           ... PbMACl3_mp2_md2_16.orca.pmp2re

-------------
DIPOLE MOMENT
-------------
                                X             Y             Z
Electronic contribution:    -58.11677     -70.94431     -72.14263
Nuclear contribution   :     59.02381      72.06150      72.99864
                        -----------------------------------------
Total Dipole Moment    :      0.90704       1.11719       0.85602
                        -----------------------------------------
Magnitude (a.u.)       :      1.67440
Magnitude (Debye)      :      4.25598


Timings for individual modules:

Sum of individual times         ...      834.639 sec (=  13.911 min)
GTO integral calculation        ...        0.604 sec (=   0.010 min)   0.1 %
SCF iterations                  ...      287.112 sec (=   4.785 min)  34.4 %
MP2 module                      ...      546.923 sec (=   9.115 min)  65.5 %
                             ****ORCA TERMINATED NORMALLY****
TOTAL RUN TIME: 0 days 0 hours 13 minutes 55 seconds 155 msec
