
                                 *****************
                                 * O   R   C   A *
                                 *****************

           --- An Ab Initio, DFT and Semiempirical electronic structure package ---

                  #######################################################
                  #                        -***-                        #
                  #  Department of molecular theory and spectroscopy    #
                  #              Directorship: Frank Neese              #
                  # Max Planck Institute for Chemical Energy Conversion #
                  #                  D-45470 Muelheim/Ruhr              #
                  #                       Germany                       #
                  #                                                     #
                  #                  All rights reserved                #
                  #                        -***-                        #
                  #######################################################


                         Program Version 3.0.3 - RELEASE   -


 With contributions from (in alphabetic order):
   Ute Becker             : Parallelization
   Dmytro Bykov           : SCF Hessian
   Dmitry Ganyushin       : Spin-Orbit,Spin-Spin,Magnetic field MRCI
   Andreas Hansen         : Spin unrestricted coupled pair/coupled cluster methods
   Dimitrios Liakos       : Extrapolation schemes; parallel MDCI
   Robert Izsak           : Overlap fitted RIJCOSX, COSX-SCS-MP3
   Christian Kollmar      : KDIIS, OOCD, Brueckner-CCSD(T), CCSD density
   Simone Kossmann        : Meta GGA functionals, TD-DFT gradient, OOMP2, MP2 Hessian
   Taras Petrenko         : DFT Hessian,TD-DFT gradient, ASA and ECA modules, normal mode analysis, Resonance Raman, ABS, FL, XAS/XES, NRVS
   Christoph Reimann      : Effective Core Potentials
   Michael Roemelt        : Restricted open shell CIS
   Christoph Riplinger    : Improved optimizer, TS searches, QM/MM, DLPNO-CCSD
   Barbara Sandhoefer     : DKH picture change effects
   Igor Schapiro          : Molecular dynamics
   Kantharuban Sivalingam : CASSCF convergence, NEVPT2
   Boris Wezisla          : Elementary symmetry handling
   Frank Wennmohs         : Technical directorship


 We gratefully acknowledge several colleagues who have allowed us to
 interface, adapt or use parts of their codes:
   Stefan Grimme, W. Hujo, H. Kruse, T. Risthaus : VdW corrections, initial TS optimization,
                                                   DFT functionals, gCP
   Ed Valeev                                     : LibInt (2-el integral package), F12 methods
   Garnet Chan, S. Sharma, R. Olivares           : DMRG
   Ulf Ekstrom                                   : XCFun DFT Library
   Mihaly Kallay                                 : mrcc  (arbitrary order and MRCC methods)
   Andreas Klamt, Michael Diedenhofen            : otool_cosmo (COSMO solvation model)
   Frank Weinhold                                : gennbo (NPA and NBO analysis)
   Christopher J. Cramer and Donald G. Truhlar   : smd solvation model


 Your calculation uses the libint2 library for the computation of 2-el integrals
 For citations please refer to: http://libint.valeyev.net

 This ORCA versions uses:
   CBLAS   interface :  Fast vector & matrix operations
   LAPACKE interface :  Fast linear algebra routines
   SCALAPACK package :  Parallel linear algebra routines


Your calculation utilizes the basis: Ahlrichs-TZV
Cite in your paper:
H - Kr: A. Schaefer, H. Horn and R. Ahlrichs, J. Chem. Phys. 97, 2571 (1992).

The def2-TZV basis will be loaded
Cite in your paper:
 	F. Weigend, R. Ahlrichs, Phys. Chem. Chem. Phys. 2005, 7, 3297.

Your calculation utilizes the atom-pairwise dispersion correction
with the Becke-Johnson damping scheme (D3BJ)
Cite in your paper:
S.Grimme, S.Ehrlich, L.Goerigk, J Comput Chem, (2011), 32, 1456–1465 
S.Grimme, J.Antony, S.Ehrlich and H.Krieg, J.Chem.Phys., 132, (2010), 154104 
   

================================================================================
                                        WARNINGS
                       Please study these warnings very carefully!
================================================================================

WARNING: The RI method has been chosen with no auxiliary basis (AUX or GTOAUX in BASIS block)
        Standard TZV/J expansion basis used (GTOAUX=TZV_J)

Now building the actual basis set
cite the ECPs for Pb [SD(60,MDF)] as follows:
  B. Metz, H. Stoll, M. Dolg, J. Chem. Phys. 113, 2563 (2000).

ECP parameters for Pb [SD(60,MDF)] have been obtained from:
  pseudopotential library of the Stuttgart/Cologne group
  http://www.theochem.uni-stuttgart.de/pseudopotentials/

cite the ECP basis sets for Pb [DEF2-TZVP] as follows:
  F. Weigend, R. Ahlrichs; Phys. Chem. Chem. Phys. 7, 3297(2005).

ECP basis sets for Pb [DEF2-TZVP] have been obtained from:
  Turbomole basis set library
  ftp://ftp.chemie.uni-karlsruhe.de/pub/basen/



INFO   : the flag for use of LIBINT has been found!

================================================================================
                                       INPUT FILE
================================================================================
NAME = PbMACl3_mp2_11.orca
|  1> ! RIJCOSX RI-B2PLYP D3BJ def2-TZVP ECP{def2-TZVP} TIGHTSCF Grid5 FinalGrid6 SlowConv MORead
|  2> %method
|  3>  RunTyp Gradient
|  4>  end
|  5> %maxcore 1000
|  6> %moinp "previous.gbw"
|  7> *xyz 0 1
|  8> C 2.905719 3.576013 2.873338
|  9> N 2.134625 2.614408 2.046990
| 10> H 3.548796 3.021424 3.560517
| 11> H 2.209179 4.197444 3.440826
| 12> H 3.515705 4.204875 2.220874
| 13> H 1.516852 1.975028 2.601630
| 14> H 2.717740 1.973704 1.464858
| 15> H 1.486857 3.059076 1.361735
| 16> Pb 0.811826 0.131547 0.209487
| 17> Cl 2.516546 0.268387 0.089874
| 18> Cl -1.525344 2.735046 -0.108798
| 19> Cl 0.302947 0.320768 2.851419
| 20> *
| 21> 
| 22>                          ****END OF INPUT****
================================================================================

                     *******************************
                     * Energy+Gradient Calculation *
                     *******************************

---------------------------------
CARTESIAN COORDINATES (ANGSTROEM)
---------------------------------
  C      2.905719    3.576013    2.873338
  N      2.134625    2.614408    2.046990
  H      3.548796    3.021424    3.560517
  H      2.209179    4.197444    3.440826
  H      3.515705    4.204875    2.220874
  H      1.516852    1.975028    2.601630
  H      2.717740    1.973704    1.464858
  H      1.486857    3.059076    1.361735
  Pb     0.811826    0.131547    0.209487
  Cl     2.516546    0.268387    0.089874
  Cl    -1.525344    2.735046   -0.108798
  Cl     0.302947    0.320768    2.851419

----------------------------
CARTESIAN COORDINATES (A.U.)
----------------------------
  NO LB      ZA    FRAG    MASS        X           Y           Z
   0 C     6.0000    0    12.011          5.491013132131525          6.757685221342137          5.429821910189021
   1 N     7.0000    0    14.007          4.033856648621652          4.940515122332791          3.868250498875463
   2 H     1.0000    0     1.008          6.706252545155202          5.709663894456884          6.728402025170893
   3 H     1.0000    0     1.008          4.174743290810016          7.932019622470954          6.502218814475724
   4 H     1.0000    0     1.008          6.643719617657614          7.946062177372124          4.196843637946225
   5 H     1.0000    0     1.008          2.866434865690719          3.732262026826222          4.916368201793546
   6 H     1.0000    0     1.008          5.135784303203143          3.729760029424910          2.768180445083617
   7 H     1.0000    0     1.008          2.809752530303751          5.780815862851287          2.573306216975256
   8 Pb   22.0000*   0   207.200  1.534128808396754  0.248587803738939  0.395873058616761
   9 Cl   17.0000    0    35.453          4.755582743414990          0.507177927904723          0.169837246560039
  10 Cl   17.0000    0    35.453         -2.882482420019978          5.168487903676784         -0.205598423918364
  11 Cl   17.0000    0    35.453          0.572486863093041          0.606163672525652          5.388401003059601
* core charge reduced due to ECP

--------------------------------
INTERNAL COORDINATES (ANGSTROEM)
--------------------------------
 C      0   0   0   0.000000     0.000     0.000
 N      1   0   0   1.483955     0.000     0.000
 H      1   2   0   1.092397   109.099     0.000
 H      1   2   3   1.092423   109.061   240.173
 H      1   2   3   1.092364   109.305   120.114
 H      2   1   3   1.047891   114.015    60.210
 H      2   1   3   1.043744   114.712   299.789
 H      2   1   3   1.042549   114.361   179.707
 Pb     7   2   1   2.932918   105.143   175.210
 Cl     9   7   2   1.714381    48.207   178.944
 Cl     8   2   1   3.367613   143.296   216.159
 Cl     6   2   1   2.067011   153.962   192.932

---------------------------
INTERNAL COORDINATES (A.U.)
---------------------------
 C      0   0   0   0.000000     0.000     0.000
 N      1   0   0   2.804268     0.000     0.000
 H      1   2   0   2.064332   109.099     0.000
 H      1   2   3   2.064379   109.061   240.173
 H      1   2   3   2.064269   109.305   120.114
 H      2   1   3   1.980227   114.015    60.210
 H      2   1   3   1.972391   114.712   299.789
 H      2   1   3   1.970131   114.361   179.707
 Pb     7   2   1   5.542411   105.143   175.210
 Cl     9   7   2   3.239711    48.207   178.944
 Cl     8   2   1   6.363866   143.296   216.159
 Cl     6   2   1   3.906085   153.962   192.932

---------------------
BASIS SET INFORMATION
---------------------
There are 5 groups of distinct atoms

 Group   1 Type C   : 11s6p2d1f contracted to 5s3p2d1f pattern {62111/411/11/1}
 Group   2 Type N   : 11s6p2d1f contracted to 5s3p2d1f pattern {62111/411/11/1}
 Group   3 Type H   : 5s1p contracted to 3s1p pattern {311/1}
 Group   4 Type Pb  : 10s9p8d2f contracted to 6s5p3d2f pattern {421111/33111/611/11}
 Group   5 Type Cl  : 14s9p3d1f contracted to 5s5p2d1f pattern {73211/51111/21/1}

Atom   0C    basis set group =>   1
Atom   1N    basis set group =>   2
Atom   2H    basis set group =>   3
Atom   3H    basis set group =>   3
Atom   4H    basis set group =>   3
Atom   5H    basis set group =>   3
Atom   6H    basis set group =>   3
Atom   7H    basis set group =>   3
Atom   8Pb   basis set group =>   4
Atom   9Cl   basis set group =>   5
Atom  10Cl   basis set group =>   5
Atom  11Cl   basis set group =>   5
-------------------------------
AUXILIARY BASIS SET INFORMATION
-------------------------------
There are 5 groups of distinct atoms

 Group   1 Type C   : 12s5p4d2f1g contracted to 6s4p3d1f1g pattern {711111/2111/211/2/1}
 Group   2 Type N   : 12s5p4d2f1g contracted to 6s4p3d1f1g pattern {711111/2111/211/2/1}
 Group   3 Type H   : 5s2p1d contracted to 3s1p1d pattern {311/2/1}
 Group   4 Type Pb  : 31s12p8d6f3g contracted to 31s12p8d6f3g pattern {1111111111111111111111111111111/111111111111/11111111/111111/111}
 Group   5 Type Cl  : 14s5p5d2f1g contracted to 8s4p3d1f1g pattern {71111111/2111/311/2/1}

Atom   0C    basis set group =>   1
Atom   1N    basis set group =>   2
Atom   2H    basis set group =>   3
Atom   3H    basis set group =>   3
Atom   4H    basis set group =>   3
Atom   5H    basis set group =>   3
Atom   6H    basis set group =>   3
Atom   7H    basis set group =>   3
Atom   8Pb   basis set group =>   4
Atom   9Cl   basis set group =>   5
Atom  10Cl   basis set group =>   5
Atom  11Cl   basis set group =>   5

-------------------------
ECP PARAMETER INFORMATION
-------------------------

 Group 1, Type Pb ECP SD(60,MDF) (replacing 60 core electrons, lmax=5)

Atom   8Pb   ECP group =>   1


------------------------------------------------------------------------------
                           ORCA GTO INTEGRAL CALCULATION
                           -- RI-GTO INTEGRALS CHOSEN --
------------------------------------------------------------------------------

                         BASIS SET STATISTICS AND STARTUP INFO

Gaussian basis set:
 # of primitive gaussian shells          ...  186
 # of primitive gaussian functions       ...  420
 # of contracted shells                  ...  101
 # of contracted basis functions         ...  259
 Highest angular momentum                ...    3
 Maximum contraction depth               ...    7
Auxiliary gaussian basis set:
 # of primitive gaussian shells          ...  237
 # of primitive gaussian functions       ...  643
 # of contracted shells                  ...  171
 # of contracted aux-basis functions     ...  493
 Highest angular momentum                ...    4
 Maximum contraction depth               ...    7
Ratio of auxiliary to basis functions    ...  1.90
Integral package used                  ... LIBINT
 One Electron integrals                  
   ECP integrals                         ... done
 Ordering auxiliary basis shells         ... done
 Integral threshhold             Thresh  ...  2.500e-11
 Primitive cut-off               TCut    ...  2.500e-12
 Pre-screening matrix                    ... done
 Shell pair data                         ... 
 Ordering of the shell pairs             ... done (   0.001 sec) 4316 of 5151 pairs
 Determination of significant pairs      ... done (   0.000 sec)
 Creation of shell pair data             ... done (   0.001 sec)
 Storage of shell pair data              ... done (   0.001 sec)
 Shell pair data done in (   0.003 sec)
 Computing two index integrals           ... done
 Cholesky decomposition of the V-matrix  ... done


Timings:
 Total evaluation time                   ...   1.146 sec (  0.019 min)
 One electron matrix time                ...   0.825 sec (  0.014 min) = 71.9%
 Schwartz matrix evaluation time         ...   0.270 sec (  0.005 min) = 23.6%
 Two index repulsion integral time       ...   0.009 sec (  0.000 min) =  0.8%
 Cholesky decomposition of V             ...   0.009 sec (  0.000 min) =  0.8%
 Three index repulsion integral time     ...   0.000 sec (  0.000 min) =  0.0%

-------------------------------------------------------------------------------
                                 ORCA SCF
-------------------------------------------------------------------------------

------------
SCF SETTINGS
------------
Hamiltonian:
 Density Functional     Method          .... DFT(GTOs)
 Exchange Functional    Exchange        .... B88
   X-Alpha parameter    XAlpha          ....  0.666667
   Becke's b parameter  XBeta           ....  0.004200
 Correlation Functional Correlation     .... LYP
 LDA part of GGA corr.  LDAOpt          .... VWN-3
 Gradients option       PostSCFGGA      .... off
 Hybrid DFT is turned on
   Fraction HF Exchange ScalHFX         ....  0.530000
   Scaling of DF-GGA-X  ScalDFX         ....  0.470000
   Scaling of DF-GGA-C  ScalDFC         ....  0.730000
   Scaling of DF-LDA-C  ScalLDAC        ....  0.730000
   Perturbative correction              ....  0.270000
 RI-approximation to the Coulomb term is turned on
   Number of auxiliary basis functions  .... 493
   RIJ-COSX (HFX calculated with COS-X)).... on


General Settings:
 Integral files         IntName         .... PbMACl3_mp2_11.orca
 Hartree-Fock type      HFTyp           .... RHF
 Total Charge           Charge          ....    0
 Multiplicity           Mult            ....    1
 Number of Electrons    NEL             ....   92
 Basis Dimension        Dim             ....  259
 Nuclear Repulsion      ENuc            ....    595.0463410240 Eh

Convergence Acceleration:
 DIIS                   CNVDIIS         .... on
   Start iteration      DIISMaxIt       ....     0
   Startup error        DIISStart       ....  0.200000
   # of expansion vecs  DIISMaxEq       ....     5
   Bias factor          DIISBfac        ....   1.050
   Max. coefficient     DIISMaxC        ....  10.000
 Newton-Raphson         CNVNR           .... off
 SOSCF                  CNVSOSCF        .... on
   Start iteration      SOSCFMaxIt      ....   150
   Startup grad/error   SOSCFStart      ....  0.001000
 Level Shifting         CNVShift        .... on
   Level shift para.    LevelShift      ....    0.2500
   Turn off err/grad.   ShiftErr        ....    0.0000
 Zerner damping         CNVZerner       .... off
 Static damping         CNVDamp         .... on
   Fraction old density DampFac         ....    0.8500
   Max. Damping (<1)    DampMax         ....    0.9800
   Min. Damping (>=0)   DampMin         ....    0.0000
   Turn off err/grad.   DampErr         ....    0.0300
 Fernandez-Rico         CNVRico         .... off

SCF Procedure:
 Maximum # iterations   MaxIter         ....   125
 SCF integral mode      SCFMode         .... Direct
   Integral package                     .... LIBINT
 Reset frequeny         DirectResetFreq ....    20
 Integral Threshold     Thresh          ....  2.500e-11 Eh
 Primitive CutOff       TCut            ....  2.500e-12 Eh

Convergence Tolerance:
 Convergence Check Mode ConvCheckMode   .... Total+1el-Energy
 Energy Change          TolE            ....  1.000e-08 Eh
 1-El. energy change                    ....  1.000e-05 Eh
 Orbital Gradient       TolG            ....  1.000e-05
 Orbital Rotation angle TolX            ....  1.000e-05
 DIIS Error             TolErr          ....  5.000e-07


Diagonalization of the overlap matrix:
Smallest eigenvalue                        ... 1.102e-03
Time for diagonalization                   ...    0.021 sec
Threshold for overlap eigenvalues          ... 1.000e-08
Number of eigenvalues below threshold      ... 0
Time for construction of square roots      ...    0.010 sec
Total time needed                          ...    0.031 sec

---------------------
INITIAL GUESS: MOREAD
---------------------
Guess MOs are being read from file: previous.gbw
Input Geometry matches current geometry (good)
Input basis set matches current basis set (good)
MOs were renormalized
MOs were reorthogonalized (Schmidt)
                      ------------------
                      INITIAL GUESS DONE (   0.2 sec)
                      ------------------
-------------------
DFT GRID GENERATION
-------------------

General Integration Accuracy     IntAcc      ...  5.010
Radial Grid Type                 RadialGrid  ... Gauss-Chebyshev
Angular Grid (max. acc.)         AngularGrid ... Lebedev-434
Angular grid pruning method      GridPruning ... 3 (G Style)
Weight generation scheme         WeightScheme... Becke
Basis function cutoff            BFCut       ...    1.0000e-11
Integration weight cutoff        WCut        ...    1.0000e-14
Grids for H and He will be reduced by one unit

# of grid points (after initial pruning)     ... 115882 (   0.1 sec)
# of grid points (after weights+screening)   ... 109028 (   0.3 sec)
nearest neighbour list constructed           ...    0.0 sec
Grid point re-assignment to atoms done       ...    0.0 sec
Grid point division into batches done        ...    1.2 sec
Reduced shell lists constructed in    3.0 sec

Total number of grid points                  ...   109028
Total number of batches                      ...     1710
Average number of points per batch           ...       63
Average number of grid points per atom       ...     9086
Average number of shells per batch           ...    53.17 (52.65%)
Average number of basis functions per batch  ...   139.12 (53.71%)
Average number of large shells per batch     ...    40.06 (75.34%)
Average number of large basis fcns per batch ...   102.54 (73.71%)
Maximum spatial batch extension              ...  31.94, 33.22, 32.92 au
Average spatial batch extension              ...   2.41,  2.48,  2.45 au

Time for grid setup =    3.368 sec

--------------------
COSX GRID GENERATION
--------------------

General Integration Accuracy     IntAcc      ...  3.340
Radial Grid Type                 RadialGrid  ... Gauss-Chebyshev
Angular Grid (max. acc.)         AngularGrid ... Lebedev-50
Angular grid pruning method      GridPruning ... 3 (G Style)
Weight generation scheme         WeightScheme... Becke
Basis function cutoff            BFCut       ...    1.0000e-11
Integration weight cutoff        WCut        ...    1.0000e-14
Grids for H and He will be reduced by one unit

# of grid points (after initial pruning)     ...   6578 (   0.0 sec)
# of grid points (after weights+screening)   ...   6196 (   0.0 sec)
nearest neighbour list constructed           ...    0.0 sec
Grid point re-assignment to atoms done       ...    0.0 sec
Grid point division into batches done        ...    0.0 sec
Reduced shell lists constructed in    0.1 sec

Total number of grid points                  ...     6196
Total number of batches                      ...      103
Average number of points per batch           ...       60
Average number of grid points per atom       ...      516
Average number of shells per batch           ...    64.81 (64.17%)
Average number of basis functions per batch  ...   172.63 (66.65%)
Average number of large shells per batch     ...    50.19 (77.45%)
Average number of large basis fcns per batch ...   131.04 (75.91%)
Maximum spatial batch extension              ...  32.21, 26.56, 34.37 au
Average spatial batch extension              ...   6.36,  6.35,  6.41 au

Overlap Fitting                  UseSFitting ... on
Constructing numerical overlap ... done (      0.1 sec)
Inverting numerical overlap    ... done (      0.0 sec)
Obtaining analytic overlap     ... done (      0.0 sec)
Final contraction and storage  ... done (      0.0 sec)


General Integration Accuracy     IntAcc      ...  3.670
Radial Grid Type                 RadialGrid  ... Gauss-Chebyshev
Angular Grid (max. acc.)         AngularGrid ... Lebedev-50
Angular grid pruning method      GridPruning ... 3 (G Style)
Weight generation scheme         WeightScheme... Becke
Basis function cutoff            BFCut       ...    1.0000e-11
Integration weight cutoff        WCut        ...    1.0000e-14
Grids for H and He will be reduced by one unit

# of grid points (after initial pruning)     ...   8124 (   0.0 sec)
# of grid points (after weights+screening)   ...   7629 (   0.0 sec)
nearest neighbour list constructed           ...    0.0 sec
Grid point re-assignment to atoms done       ...    0.0 sec
Grid point division into batches done        ...    0.0 sec
Reduced shell lists constructed in    0.1 sec

Total number of grid points                  ...     7629
Total number of batches                      ...      125
Average number of points per batch           ...       61
Average number of grid points per atom       ...      636
Average number of shells per batch           ...    63.91 (63.28%)
Average number of basis functions per batch  ...   169.45 (65.43%)
Average number of large shells per batch     ...    49.54 (77.51%)
Average number of large basis fcns per batch ...   128.32 (75.72%)
Maximum spatial batch extension              ...  33.65, 26.94, 36.14 au
Average spatial batch extension              ...   6.00,  6.06,  6.22 au

Overlap Fitting                  UseSFitting ... on
Constructing numerical overlap ... done (      0.1 sec)
Inverting numerical overlap    ... done (      0.0 sec)
Obtaining analytic overlap     ... done (      0.0 sec)
Final contraction and storage  ... done (      0.0 sec)


General Integration Accuracy     IntAcc      ...  4.010
Radial Grid Type                 RadialGrid  ... Gauss-Chebyshev
Angular Grid (max. acc.)         AngularGrid ... Lebedev-110
Angular grid pruning method      GridPruning ... 3 (G Style)
Weight generation scheme         WeightScheme... Becke
Basis function cutoff            BFCut       ...    1.0000e-11
Integration weight cutoff        WCut        ...    1.0000e-14
Grids for H and He will be reduced by one unit

# of grid points (after initial pruning)     ...  15170 (   0.0 sec)
# of grid points (after weights+screening)   ...  14397 (   0.0 sec)
nearest neighbour list constructed           ...    0.0 sec
Grid point re-assignment to atoms done       ...    0.0 sec
Grid point division into batches done        ...    0.0 sec
Reduced shell lists constructed in    0.3 sec

Total number of grid points                  ...    14397
Total number of batches                      ...      230
Average number of points per batch           ...       62
Average number of grid points per atom       ...     1200
Average number of shells per batch           ...    60.80 (60.19%)
Average number of basis functions per batch  ...   161.15 (62.22%)
Average number of large shells per batch     ...    46.35 (76.25%)
Average number of large basis fcns per batch ...   120.17 (74.57%)
Maximum spatial batch extension              ...  29.48, 31.91, 31.55 au
Average spatial batch extension              ...   4.90,  5.05,  5.12 au

Overlap Fitting                  UseSFitting ... on
Constructing numerical overlap ... done (      0.2 sec)
Inverting numerical overlap    ... done (      0.0 sec)
Obtaining analytic overlap     ... done (      0.0 sec)
Final contraction and storage  ... done (      0.0 sec)

Time for X-Grid setup             =    1.191 sec
--------------
SCF ITERATIONS
--------------
ITER       Energy         Delta-E        Max-DP      RMS-DP      [F,P]     Damp
               ***  Starting incremental Fock matrix formation  ***
  0  -1668.5544889966   0.000000000000 0.03781123  0.00025725  0.0679404 0.8500
  1  -1668.5574716712  -0.002982674622 0.03445846  0.00025196  0.0578203 0.8500
                               ***Turning on DIIS***
  2  -1668.5601520245  -0.002680353339 0.02952137  0.00022157  0.0491997 0.8500
  3  -1668.5624571164  -0.002305091897 0.02502939  0.00018841  0.0418573 0.8500
  4  -1668.5644341968  -0.001977080323 0.02152660  0.00016243  0.0355813 0.8500
  5  -1668.5661246317  -0.001690434992 0.01874508  0.00014253  0.0302286 0.8500
  6  -1668.5675781144  -0.001453482625 0.10838412  0.00083232  0.0256823 0.0000
                      *** Initiating the SOSCF procedure ***
                           *** Shutting down DIIS ***
                      *** Re-Reading the Fockian *** 
                      *** Removing any level shift *** 
ITER      Energy       Delta-E        Grad      Rot      Max-DP    RMS-DP
  7  -1668.57633595  -0.0087578383  0.000784  0.000784  0.002624  0.000039
               *** Restarting incremental Fock matrix formation ***
  8  -1668.57635695  -0.0000209949  0.000459  0.002362  0.001376  0.000035
  9  -1668.57636429  -0.0000073417  0.000119  0.001223  0.001106  0.000022
 10  -1668.57636525  -0.0000009642  0.000062  0.000089  0.000333  0.000005
 11  -1668.57636546  -0.0000002020  0.000016  0.000038  0.000065  0.000002
 12  -1668.57636547  -0.0000000181  0.000006  0.000020  0.000037  0.000001
 13  -1668.57636544   0.0000000337  0.000005  0.000016  0.000010  0.000000
                  ***Gradient check signals convergence***
              ***Rediagonalizing the Fockian in SOSCF/NRSCF***

               *****************************************************
               *                     SUCCESS                       *
               *           SCF CONVERGED AFTER  14 CYCLES          *
               *****************************************************

Old exchange energy                            =    -59.298952593 Eh
New exchange energy                            =    -59.301332382 Eh
Exchange energy change after final integration =     -0.002379789 Eh
Total energy after final integration           =  -1668.578745217 Eh
Final COS-X integration done in                =    29.387 sec

----------------
TOTAL SCF ENERGY
----------------

Total Energy       :        -1668.57874522 Eh          -45404.33597 eV

Components:
Nuclear Repulsion  :          595.04634102 Eh           16192.03413 eV
Electronic Energy  :        -2263.62508624 Eh          -61596.37010 eV

One Electron Energy:        -3557.56344285 Eh          -96806.22281 eV
Two Electron Energy:         1293.93835661 Eh           35209.85272 eV

Virial components:
Potential Energy   :        -3207.69153450 Eh          -87285.72417 eV
Kinetic Energy     :         1539.11278928 Eh           41881.38820 eV
Virial Ratio       :            2.08411726


DFT components:
N(Alpha)           :       46.000013483536 electrons
N(Beta)            :       46.000013483536 electrons
N(Total)           :       92.000026967071 electrons
E(X)               :      -52.661065763347 Eh       
E(C)               :       -2.614282997480 Eh       
E(XC)              :      -55.275348760827 Eh       

---------------
SCF CONVERGENCE
---------------

  Last Energy change         ...    1.2507e-08  Tolerance :   1.0000e-08
  Last MAX-Density change    ...    3.6414e-13  Tolerance :   1.0000e-07
  Last RMS-Density change    ...    1.8869e-15  Tolerance :   5.0000e-09
  Last Orbital Gradient      ...    1.1479e-06  Tolerance :   1.0000e-05
  Last Orbital Rotation      ...    4.3059e-06  Tolerance :   1.0000e-05

             **** THE GBW FILE WAS UPDATED (PbMACl3_mp2_11.orca.gbw) ****
             **** DENSITY FILE WAS UPDATED (PbMACl3_mp2_11.orca.scfp.tmp) ****
             **** ENERGY FILE WAS UPDATED (PbMACl3_mp2_11.orca.en.tmp) ****
----------------
ORBITAL ENERGIES
----------------

  NO   OCC          E(Eh)            E(eV) 
   0   2.0000    -102.979841     -2802.2239 
   1   2.0000    -102.852338     -2798.7544 
   2   2.0000    -102.747625     -2795.9050 
   3   2.0000     -15.010374      -408.4530 
   4   2.0000     -10.739474      -292.2359 
   5   2.0000     -10.010218      -272.3919 
   6   2.0000      -9.859181      -268.2819 
   7   2.0000      -9.752040      -265.3665 
   8   2.0000      -7.649191      -208.1451 
   9   2.0000      -7.641651      -207.9399 
  10   2.0000      -7.641063      -207.9239 
  11   2.0000      -7.496068      -203.9784 
  12   2.0000      -7.494944      -203.9478 
  13   2.0000      -7.494139      -203.9259 
  14   2.0000      -7.389025      -201.0656 
  15   2.0000      -7.387783      -201.0318 
  16   2.0000      -7.387607      -201.0270 
  17   2.0000      -5.849041      -159.1605 
  18   2.0000      -3.636175       -98.9453 
  19   2.0000      -3.618231       -98.4571 
  20   2.0000      -3.615232       -98.3755 
  21   2.0000      -1.242094       -33.7991 
  22   2.0000      -1.182859       -32.1872 
  23   2.0000      -1.042378       -28.3646 
  24   2.0000      -1.039743       -28.2929 
  25   2.0000      -1.006870       -27.3983 
  26   2.0000      -1.004522       -27.3344 
  27   2.0000      -0.939696       -25.5704 
  28   2.0000      -0.895279       -24.3618 
  29   2.0000      -0.868746       -23.6398 
  30   2.0000      -0.750075       -20.4106 
  31   2.0000      -0.712759       -19.3952 
  32   2.0000      -0.704878       -19.1807 
  33   2.0000      -0.639108       -17.3910 
  34   2.0000      -0.628251       -17.0956 
  35   2.0000      -0.553968       -15.0742 
  36   2.0000      -0.550357       -14.9760 
  37   2.0000      -0.513516       -13.9735 
  38   2.0000      -0.511847       -13.9281 
  39   2.0000      -0.390644       -10.6300 
  40   2.0000      -0.356358        -9.6970 
  41   2.0000      -0.346953        -9.4411 
  42   2.0000      -0.304761        -8.2930 
  43   2.0000      -0.242279        -6.5927 
  44   2.0000      -0.238326        -6.4852 
  45   2.0000      -0.235201        -6.4002 
  46   0.0000      -0.041542        -1.1304 
  47   0.0000      -0.002545        -0.0693 
  48   0.0000       0.006617         0.1801 
  49   0.0000       0.046029         1.2525 
  50   0.0000       0.070626         1.9218 
  51   0.0000       0.075633         2.0581 
  52   0.0000       0.083388         2.2691 
  53   0.0000       0.097864         2.6630 
  54   0.0000       0.103214         2.8086 
  55   0.0000       0.113720         3.0945 
  56   0.0000       0.121919         3.3176 
  57   0.0000       0.145743         3.9659 
  58   0.0000       0.183045         4.9809 
  59   0.0000       0.185747         5.0544 
  60   0.0000       0.197055         5.3621 
  61   0.0000       0.212142         5.7727 
  62   0.0000       0.224401         6.1063 
  63   0.0000       0.236257         6.4289 
  64   0.0000       0.254912         6.9365 
  65   0.0000       0.273423         7.4402 
  66   0.0000       0.290609         7.9079 
  67   0.0000       0.298213         8.1148 
  68   0.0000       0.306402         8.3376 
  69   0.0000       0.326844         8.8939 
  70   0.0000       0.337908         9.1949 
  71   0.0000       0.359262         9.7760 
  72   0.0000       0.366952         9.9853 
  73   0.0000       0.374377        10.1873 
  74   0.0000       0.400912        10.9094 
  75   0.0000       0.432755        11.7759 
  76   0.0000       0.441850        12.0233 
  77   0.0000       0.449998        12.2451 
  78   0.0000       0.462807        12.5936 
  79   0.0000       0.465620        12.6702 
  80   0.0000       0.471069        12.8184 
  81   0.0000       0.480244        13.0681 
  82   0.0000       0.497670        13.5423 
  83   0.0000       0.511758        13.9256 
  84   0.0000       0.527688        14.3591 
  85   0.0000       0.534804        14.5528 
  86   0.0000       0.546341        14.8667 
  87   0.0000       0.554231        15.0814 
  88   0.0000       0.564854        15.3705 
  89   0.0000       0.566832        15.4243 
  90   0.0000       0.572741        15.5851 
  91   0.0000       0.583508        15.8781 
  92   0.0000       0.607096        16.5199 
  93   0.0000       0.615805        16.7569 
  94   0.0000       0.630044        17.1444 
  95   0.0000       0.653160        17.7734 
  96   0.0000       0.657278        17.8854 
  97   0.0000       0.665690        18.1144 
  98   0.0000       0.671939        18.2844 
  99   0.0000       0.676637        18.4122 
 100   0.0000       0.684576        18.6283 
 101   0.0000       0.696254        18.9460 
 102   0.0000       0.710846        19.3431 
 103   0.0000       0.716741        19.5035 
 104   0.0000       0.737605        20.0712 
 105   0.0000       0.780513        21.2388 
 106   0.0000       0.788160        21.4469 
 107   0.0000       0.825356        22.4591 
 108   0.0000       0.833865        22.6906 
 109   0.0000       0.847491        23.0614 
 110   0.0000       0.879361        23.9286 
 111   0.0000       0.891644        24.2629 
 112   0.0000       0.909074        24.7372 
 113   0.0000       0.923615        25.1329 
 114   0.0000       0.981972        26.7208 
 115   0.0000       0.996526        27.1169 
 116   0.0000       1.029679        28.0190 
 117   0.0000       1.038915        28.2703 
 118   0.0000       1.041729        28.3469 
 119   0.0000       1.078570        29.3494 
 120   0.0000       1.113831        30.3089 
 121   0.0000       1.141948        31.0740 
 122   0.0000       1.165472        31.7141 
 123   0.0000       1.184988        32.2452 
 124   0.0000       1.209745        32.9188 
 125   0.0000       1.269792        34.5528 
 126   0.0000       1.276676        34.7401 
 127   0.0000       1.302674        35.4476 
 128   0.0000       1.350907        36.7600 
 129   0.0000       1.463315        39.8188 
 130   0.0000       1.524283        41.4779 
 131   0.0000       1.538582        41.8670 
 132   0.0000       1.546979        42.0954 
 133   0.0000       1.557041        42.3692 
 134   0.0000       1.569262        42.7018 
 135   0.0000       1.574945        42.8564 
 136   0.0000       1.696923        46.1756 
 137   0.0000       1.703793        46.3626 
 138   0.0000       1.773504        48.2595 
 139   0.0000       1.810837        49.2754 
 140   0.0000       1.824878        49.6575 
 141   0.0000       1.852477        50.4085 
 142   0.0000       1.861749        50.6608 
 143   0.0000       1.865014        50.7496 
 144   0.0000       1.869033        50.8590 
 145   0.0000       1.894761        51.5591 
 146   0.0000       1.931640        52.5626 
 147   0.0000       1.958670        53.2981 
 148   0.0000       1.966213        53.5034 
 149   0.0000       1.987305        54.0773 
 150   0.0000       1.993124        54.2357 
 151   0.0000       1.997123        54.3445 
 152   0.0000       2.014409        54.8149 
 153   0.0000       2.024945        55.1015 
 154   0.0000       2.028934        55.2101 
 155   0.0000       2.033181        55.3257 
 156   0.0000       2.059730        56.0481 
 157   0.0000       2.069494        56.3138 
 158   0.0000       2.084976        56.7351 
 159   0.0000       2.101080        57.1733 
 160   0.0000       2.119780        57.6821 
 161   0.0000       2.137522        58.1649 
 162   0.0000       2.150950        58.5303 
 163   0.0000       2.163042        58.8594 
 164   0.0000       2.175769        59.2057 
 165   0.0000       2.177783        59.2605 
 166   0.0000       2.190634        59.6102 
 167   0.0000       2.200456        59.8775 
 168   0.0000       2.213068        60.2206 
 169   0.0000       2.221175        60.4413 
 170   0.0000       2.234937        60.8157 
 171   0.0000       2.238509        60.9129 
 172   0.0000       2.258808        61.4653 
 173   0.0000       2.272463        61.8369 
 174   0.0000       2.278108        61.9905 
 175   0.0000       2.305335        62.7314 
 176   0.0000       2.325748        63.2868 
 177   0.0000       2.336463        63.5784 
 178   0.0000       2.341771        63.7228 
 179   0.0000       2.352849        64.0243 
 180   0.0000       2.361408        64.2572 
 181   0.0000       2.362061        64.2749 
 182   0.0000       2.363961        64.3267 
 183   0.0000       2.365480        64.3680 
 184   0.0000       2.367148        64.4134 
 185   0.0000       2.368290        64.4445 
 186   0.0000       2.383414        64.8560 
 187   0.0000       2.390836        65.0580 
 188   0.0000       2.402333        65.3708 
 189   0.0000       2.405698        65.4624 
 190   0.0000       2.436000        66.2869 
 191   0.0000       2.445973        66.5583 
 192   0.0000       2.458411        66.8968 
 193   0.0000       2.476292        67.3833 
 194   0.0000       2.501745        68.0760 
 195   0.0000       2.507366        68.2289 
 196   0.0000       2.514221        68.4154 
 197   0.0000       2.527968        68.7895 
 198   0.0000       2.558332        69.6157 
 199   0.0000       2.561708        69.7076 
 200   0.0000       2.586061        70.3703 
 201   0.0000       2.615726        71.1775 
 202   0.0000       2.733421        74.3802 
 203   0.0000       2.744405        74.6791 
 204   0.0000       2.765780        75.2607 
 205   0.0000       2.772658        75.4479 
 206   0.0000       2.774429        75.4961 
 207   0.0000       2.820388        76.7467 
 208   0.0000       2.843458        77.3744 
 209   0.0000       2.884566        78.4930 
 210   0.0000       2.985647        81.2436 
 211   0.0000       3.098757        84.3215 
 212   0.0000       3.102995        84.4368 
 213   0.0000       3.173256        86.3487 
 214   0.0000       3.195260        86.9474 
 215   0.0000       3.260928        88.7344 
 216   0.0000       3.364348        91.5486 
 217   0.0000       3.366711        91.6129 
 218   0.0000       3.522666        95.8566 
 219   0.0000       3.546238        96.4980 
 220   0.0000       3.557204        96.7964 
 221   0.0000       3.635760        98.9341 
 222   0.0000       3.733845       101.6031 
 223   0.0000       3.746201       101.9393 
 224   0.0000       3.884950       105.7149 
 225   0.0000       4.146747       112.8387 
 226   0.0000       4.174000       113.5803 
 227   0.0000       4.362140       118.6999 
 228   0.0000       4.417061       120.1943 
 229   0.0000       4.801499       130.6554 
 230   0.0000       4.804433       130.7353 
 231   0.0000       4.906634       133.5163 
 232   0.0000       4.922510       133.9483 
 233   0.0000       5.044968       137.2806 
 234   0.0000       5.069228       137.9407 
 235   0.0000       5.075364       138.1077 
 236   0.0000       5.256342       143.0323 
 237   0.0000       5.463245       148.6625 
 238   0.0000       5.475451       148.9946 
 239   0.0000       5.798866       157.7952 
 240   0.0000      10.998779       299.2920 
 241   0.0000      11.053370       300.7775 
 242   0.0000      11.069600       301.2191 
 243   0.0000      11.113446       302.4122 
 244   0.0000      11.143939       303.2420 
 245   0.0000      11.158730       303.6445 
 246   0.0000      11.160145       303.6830 
 247   0.0000      11.183695       304.3238 
 248   0.0000      11.546473       314.1955 
 249   0.0000      22.628148       615.7432 
 250   0.0000      24.500687       666.6976 
 251   0.0000      25.315096       688.8588 
 252   0.0000      25.851686       703.4601 
 253   0.0000      32.318956       879.4435 
 254   0.0000      35.556207       967.5336 
 255   0.0000      35.742218       972.5952 
 256   0.0000      35.834876       975.1166 
 257   0.0000      36.528076       993.9795 
 258   0.0000     123.654828      3364.8189 

                    ********************************
                    * MULLIKEN POPULATION ANALYSIS *
                    ********************************

-----------------------
MULLIKEN ATOMIC CHARGES
-----------------------
   0 C :   -0.254977
   1 N :   -0.325204
   2 H :    0.165057
   3 H :    0.182926
   4 H :    0.161846
   5 H :    0.295997
   6 H :    0.279102
   7 H :    0.296593
   8 Pb:    0.792388
   9 Cl:   -0.314886
  10 Cl:   -0.740459
  11 Cl:   -0.538383
Sum of atomic charges:   -0.0000000

--------------------------------
MULLIKEN REDUCED ORBITAL CHARGES
--------------------------------
  0 C s       :     3.282715  s :     3.282715
      pz      :     0.969642  p :     2.899686
      px      :     0.998496
      py      :     0.931548
      dz2     :     0.006075  d :     0.066538
      dxz     :     0.017523
      dyz     :     0.017779
      dx2y2   :     0.006882
      dxy     :     0.018278
      f0      :     0.000366  f :     0.006038
      f+1     :     0.000508
      f-1     :     0.000741
      f+2     :     0.000705
      f-2     :     0.002657
      f+3     :     0.000508
      f-3     :     0.000554
  1 N s       :     3.429573  s :     3.429573
      pz      :     1.296105  p :     3.844947
      px      :     1.268587
      py      :     1.280255
      dz2     :     0.005596  d :     0.048476
      dxz     :     0.013550
      dyz     :     0.010837
      dx2y2   :     0.005871
      dxy     :     0.012621
      f0      :     0.000119  f :     0.002208
      f+1     :     0.000175
      f-1     :     0.000201
      f+2     :     0.000219
      f-2     :     0.001155
      f+3     :     0.000150
      f-3     :     0.000189
  2 H s       :     0.813078  s :     0.813078
      pz      :     0.008543  p :     0.021866
      px      :     0.007784
      py      :     0.005539
  3 H s       :     0.794955  s :     0.794955
      pz      :     0.007079  p :     0.022119
      px      :     0.007432
      py      :     0.007609
  4 H s       :     0.816373  s :     0.816373
      pz      :     0.006623  p :     0.021781
      px      :     0.007411
      py      :     0.007747
  5 H s       :     0.659460  s :     0.659460
      pz      :     0.010262  p :     0.044542
      px      :     0.015651
      py      :     0.018629
  6 H s       :     0.682433  s :     0.682433
      pz      :     0.013072  p :     0.038464
      px      :     0.010552
      py      :     0.014840
  7 H s       :     0.669681  s :     0.669681
      pz      :     0.012832  p :     0.033726
      px      :     0.013215
      py      :     0.007679
  8 Pbs       :     3.869529  s :     3.869529
      pz      :     2.361956  p :     7.281471
      px      :     2.580564
      py      :     2.338950
      dz2     :     2.010208  d :     9.967496
      dxz     :     1.993072
      dyz     :     2.012791
      dx2y2   :     1.954679
      dxy     :     1.996746
      f0      :     0.020425  f :     0.089116
      f+1     :     0.011379
      f-1     :     0.005953
      f+2     :     0.014655
      f-2     :     0.002022
      f+3     :     0.013020
      f-3     :     0.021663
  9 Cls       :     5.877318  s :     5.877318
      pz      :     3.852047  p :    11.294164
      px      :     3.621305
      py      :     3.820812
      dz2     :     0.013326  d :     0.120912
      dxz     :     0.034107
      dyz     :     0.003489
      dx2y2   :     0.034828
      dxy     :     0.035162
      f0      :     0.002484  f :     0.022492
      f+1     :     0.003410
      f-1     :     0.000446
      f+2     :     0.004108
      f-2     :     0.000810
      f+3     :     0.005206
      f-3     :     0.006028
 10 Cls       :     5.983364  s :     5.983364
      pz      :     3.974595  p :    11.754707
      px      :     3.852007
      py      :     3.928106
      dz2     :     0.000411  d :     0.002326
      dxz     :     0.000356
      dyz     :     0.000059
      dx2y2   :     0.000555
      dxy     :     0.000945
      f0      :     0.000006  f :     0.000062
      f+1     :     0.000010
      f-1     :     0.000007
      f+2     :     0.000004
      f-2     :     0.000005
      f+3     :     0.000015
      f-3     :     0.000016
 11 Cls       :     5.958631  s :     5.958631
      pz      :     3.753357  p :    11.561747
      px      :     3.919691
      py      :     3.888699
      dz2     :     0.007885  d :     0.017400
      dxz     :     0.003447
      dyz     :     0.002129
      dx2y2   :     0.000977
      dxy     :     0.002962
      f0      :     0.000241  f :     0.000605
      f+1     :     0.000141
      f-1     :     0.000064
      f+2     :     0.000022
      f-2     :     0.000041
      f+3     :     0.000073
      f-3     :     0.000024


                     *******************************
                     * LOEWDIN POPULATION ANALYSIS *
                     *******************************

----------------------
LOEWDIN ATOMIC CHARGES
----------------------
   0 C :   -0.263434
   1 N :    0.094804
   2 H :    0.129046
   3 H :    0.135143
   4 H :    0.126166
   5 H :    0.154942
   6 H :    0.168779
   7 H :    0.205295
   8 Pb:   -0.179631
   9 Cl:    0.389530
  10 Cl:   -0.683044
  11 Cl:   -0.277596

-------------------------------
LOEWDIN REDUCED ORBITAL CHARGES
-------------------------------
  0 C s       :     2.854581  s :     2.854581
      pz      :     1.029548  p :     3.075997
      px      :     1.043295
      py      :     1.003153
      dz2     :     0.029143  d :     0.296085
      dxz     :     0.076119
      dyz     :     0.080198
      dx2y2   :     0.028942
      dxy     :     0.081681
      f0      :     0.005375  f :     0.036771
      f+1     :     0.003977
      f-1     :     0.005800
      f+2     :     0.004109
      f-2     :     0.007083
      f+3     :     0.004908
      f-3     :     0.005520
  1 N s       :     2.999805  s :     2.999805
      pz      :     1.243845  p :     3.736491
      px      :     1.243206
      py      :     1.249440
      dz2     :     0.017529  d :     0.159513
      dxz     :     0.041806
      dyz     :     0.040059
      dx2y2   :     0.019096
      dxy     :     0.041024
      f0      :     0.001417  f :     0.009387
      f+1     :     0.001136
      f-1     :     0.001434
      f+2     :     0.001019
      f-2     :     0.001604
      f+3     :     0.001229
      f-3     :     0.001547
  2 H s       :     0.808281  s :     0.808281
      pz      :     0.023389  p :     0.062673
      px      :     0.021775
      py      :     0.017509
  3 H s       :     0.801681  s :     0.801681
      pz      :     0.019741  p :     0.063176
      px      :     0.022596
      py      :     0.020839
  4 H s       :     0.811255  s :     0.811255
      pz      :     0.020547  p :     0.062579
      px      :     0.020872
      py      :     0.021159
  5 H s       :     0.706376  s :     0.706376
      pz      :     0.035005  p :     0.138682
      px      :     0.048246
      py      :     0.055431
  6 H s       :     0.720159  s :     0.720159
      pz      :     0.036670  p :     0.111061
      px      :     0.032806
      py      :     0.041585
  7 H s       :     0.692994  s :     0.692994
      pz      :     0.038016  p :     0.101711
      px      :     0.037573
      py      :     0.026122
  8 Pbs       :     3.497224  s :     3.497224
      pz      :     2.491501  p :     7.871849
      px      :     2.955813
      py      :     2.424535
      dz2     :     2.131606  d :    10.470671
      dxz     :     2.116486
      dyz     :     2.035429
      dx2y2   :     2.080439
      dxy     :     2.106711
      f0      :     0.072773  f :     0.339886
      f+1     :     0.042593
      f-1     :     0.014924
      f+2     :     0.062812
      f-2     :     0.004976
      f+3     :     0.054805
      f-3     :     0.087002
  9 Cls       :     5.360758  s :     5.360758
      pz      :     3.601760  p :    10.883613
      px      :     3.709041
      py      :     3.572812
      dz2     :     0.039781  d :     0.272644
      dxz     :     0.059916
      dyz     :     0.005960
      dx2y2   :     0.107013
      dxy     :     0.059973
      f0      :     0.008326  f :     0.093456
      f+1     :     0.018203
      f-1     :     0.001459
      f+2     :     0.013874
      f-2     :     0.002127
      f+3     :     0.028649
      f-3     :     0.020818
 10 Cls       :     5.947610  s :     5.947610
      pz      :     3.972676  p :    11.732393
      px      :     3.845118
      py      :     3.914599
      dz2     :     0.000547  d :     0.002963
      dxz     :     0.000366
      dyz     :     0.000055
      dx2y2   :     0.000648
      dxy     :     0.001347
      f0      :     0.000006  f :     0.000078
      f+1     :     0.000012
      f-1     :     0.000010
      f+2     :     0.000005
      f-2     :     0.000004
      f+3     :     0.000024
      f-3     :     0.000017
 11 Cls       :     5.792325  s :     5.792325
      pz      :     3.725770  p :    11.455933
      px      :     3.883593
      py      :     3.846570
      dz2     :     0.016989  d :     0.028061
      dxz     :     0.003548
      dyz     :     0.002339
      dx2y2   :     0.001140
      dxy     :     0.004045
      f0      :     0.000673  f :     0.001277
      f+1     :     0.000218
      f-1     :     0.000130
      f+2     :     0.000024
      f-2     :     0.000047
      f+3     :     0.000151
      f-3     :     0.000034


                      *****************************
                      * MAYER POPULATION ANALYSIS *
                      *****************************

  NA   - Mulliken gross atomic population
  ZA   - Total nuclear charge
  QA   - Mulliken gross atomic charge
  VA   - Mayer's total valence
  BVA  - Mayer's bonded valence
  FA   - Mayer's free valence

  ATOM       NA         ZA         QA         VA         BVA        FA
  0 C      6.2550     6.0000    -0.2550     3.8074     3.8074     0.0000
  1 N      7.3252     7.0000    -0.3252     3.3458     3.3458    -0.0000
  2 H      0.8349     1.0000     0.1651     0.9621     0.9621    -0.0000
  3 H      0.8171     1.0000     0.1829     0.9591     0.9591     0.0000
  4 H      0.8382     1.0000     0.1618     0.9595     0.9595     0.0000
  5 H      0.7040     1.0000     0.2960     1.0041     1.0041    -0.0000
  6 H      0.7209     1.0000     0.2791     0.9350     0.9350     0.0000
  7 H      0.7034     1.0000     0.2966     0.9718     0.9718    -0.0000
  8 Pb    21.2076    22.0000     0.7924     2.2885     2.2885    -0.0000
  9 Cl    17.3149    17.0000    -0.3149     1.3997     1.3997    -0.0000
 10 Cl    17.7405    17.0000    -0.7405     0.4727     0.4727     0.0000
 11 Cl    17.5384    17.0000    -0.5384     0.8012     0.8012     0.0000

  Mayer bond orders larger than 0.1
B(  0-C ,  1-N ) :   0.8922 B(  0-C ,  2-H ) :   0.9673 B(  0-C ,  3-H ) :   0.9630 
B(  0-C ,  4-H ) :   0.9672 B(  1-N ,  5-H ) :   0.7670 B(  1-N ,  6-H ) :   0.8714 
B(  1-N ,  7-H ) :   0.8498 B(  5-H , 11-Cl) :   0.2319 B(  7-H , 10-Cl) :   0.1100 
B(  8-Pb,  9-Cl) :   1.3188 B(  8-Pb, 10-Cl) :   0.3697 B(  8-Pb, 11-Cl) :   0.5700 


-------
TIMINGS
-------

Total SCF time: 0 days 0 hours 4 min 28 sec 

Total time                  ....     268.984 sec
Sum of individual times     ....     238.466 sec  ( 88.7%)

Fock matrix formation       ....     233.045 sec  ( 86.6%)
  Coulomb formation         ....     194.086 sec  ( 83.3% of F)
  Split-RI-J                ....      13.673 sec  (  5.9% of F)
  Chain of spheres X        ....     209.754 sec  ( 90.0% of F)
  COS-X 1 center corr.      ....       0.000 sec  (  0.0% of F)
  XC integration            ....      39.040 sec  ( 16.8% of F)
    Basis function eval.    ....      12.426 sec  ( 31.8% of XC)
    Density eval.           ....      11.125 sec  ( 28.5% of XC)
    XC-Functional eval.     ....       2.555 sec  (  6.5% of XC)
    XC-Potential eval.      ....      12.068 sec  ( 30.9% of XC)
Diagonalization             ....       0.318 sec  (  0.1%)
Density matrix formation    ....       0.040 sec  (  0.0%)
Population analysis         ....       0.083 sec  (  0.0%)
Initial guess               ....       0.172 sec  (  0.1%)
Orbital Transformation      ....       0.000 sec  (  0.0%)
Orbital Orthonormalization  ....       0.168 sec  (  0.1%)
DIIS solution               ....       0.087 sec  (  0.0%)
SOSCF solution              ....       0.162 sec  (  0.1%)
Grid generation             ....       4.559 sec  (  1.7%)

------------------------------------------------------------------------------
                              ORCA MP2 CALCULATION
------------------------------------------------------------------------------


----------------------
RI-MP2 ENERGY+GRADIENT
----------------------
Dimension of the basis                    ...  259
Memory devoted to MP2                     ... 1000 MB   
Data format for buffers                   ... DOUBLE
Compression type for matrix containers    ... UNCOMPRESSED
Overall scaling of the MP2 energy         ...   2.700e-01 Eh
Calculating two index integrals           ... done (    0.014 sec)
Cholesky decomposition of the V-matrix    ... done
Cholesky decomposition of V**-1           ... done (    0.033 sec)

-----------------
RI-TRANSFORMATION (AUX index driven)
-----------------

Dimension of the orbital-basis         ... 259
Dimension of the aux-basis             ... 493
Transformation of internal MOs         ...    0-  45
Transformation of internal/external MOs...    0-  45 to   46- 258
Number Format for Storage              ... Double (8 Byte)
Integral mode                          ... Direct

First Phase: integral generation and transformation of MO indices
  Aux angular momentum 0               ... done (    0.538 sec)
  Aux angular momentum 1               ... done (    0.440 sec)
  Aux angular momentum 2               ... done (    0.546 sec)
  Aux angular momentum 3               ... done (    0.330 sec)
  Aux angular momentum 4               ... done (    0.294 sec)
Closing buffer VIJ ( 0.00 GB; CompressionRatio= 1.95)
Closing buffer VIA ( 0.04 GB; CompressionRatio= 1.00)
  Phase 1 completed in     2.263 sec
Second Phase: sorting and transformation of aux index

IJ-Transformation
Memory available                       ... 990 MB 
Max. # MO pairs treated in a batch     ... 46    
# of internal orbitals                 ... 46
# batches for internal orbitals        ... 1
Closing buffer IJV ( 0.00 GB; CompressionRatio= 1.00)
(ij|v) transformation done in     0.146 sec

IA-Transformation
Memory available                       ... 990 MB 
Max. # MO pairs treated in a batch     ... 46    
# of internal orbitals                 ... 46
# batches for internal orbitals        ... 1
Closing buffer IAV ( 0.04 GB; CompressionRatio= 1.00)
(ia|v) transformation done in     0.602 sec

  Phase 2 completed in     0.782 sec
RI-Integral transformation completed in     3.046 sec
Opening buffers                              ... done

Starting loop over batches of integrals:

Operator 0  - window                       ... (  0- 45)x( 46-258)
Operator 0  - Memory available             ...  1000 MB
Operator 0  - Memory needed per MO         ...   1.6 MB
Operator 0  - Number of orbitals per batch ... 46
Operator 0  - Number of batches            ... 1

OPERATOR  0   PASS   0:  MOs     0 ...   45
  Reading integrals       ... ok
  Internal MO   2
  Internal MO   5
  Internal MO   8
  Internal MO  11
  Internal MO  14
  Internal MO  17
  Internal MO  20
  Internal MO  23
  Internal MO  26
  Internal MO  29
  Internal MO  32
  Internal MO  35
  Internal MO  38
  Internal MO  41
  Internal MO  44
Closing buffer GIPV ( 0.04 GB; CompressionRatio= 1.00)
Time spent in pair loops =    64.842 sec

-----------------------------------------------
 RI-MP2 CORRELATION ENERGY:     -0.579437880 Eh
-----------------------------------------------


---------------------
MP2 DENSITY FORMATION
---------------------

Completing the external part of the density      ... done
Storing the unrelaxed density                    ... done

Calculating the xc-kernel                        ... done
Calculating G(D)                                 ... done
Completing the Lagrangian                        ... done
Solving the Z-vector equations                   ... 

------------------------------------------------------------------------------
                           ORCA CP-SCF CALCULATION
------------------------------------------------------------------------------

Input orbitals are from        ... PbMACl3_mp2_11.orca.gbw
Input Perturbation             ... PbMACl3_mp2_11.orca.pin.tmp
Wavefunction output            ... PbMACl3_mp2_11.orca.pout.tmp
Perturbation mode              ... Real perturbation
Solver                         ... DIIS
   MaxDIIS                     ... 20
   Levelshift                  ...    3.000e-01 Eh
Max. number of iterations      ... 128
Convergence tolerance          ... 1.000e-08
Integral handling              ... Direct
COSX GridX                     ... 1
Number of perturbations        ... 1
Number of operators            ... 1
Orbital ranges used for CP-SCF:
 Operator 0:  Orbitals   0... 45  to  46...258
DFT calculation                         ... on
Exchange functional (SCF)               ... B88
Exchange functional (CP-SCF)            ... B88
   X-Alpha parameter    XAlpha (SCF)    ...  0.666667
   X-Alpha parameter    XAlpha (CP-SCF) ...  0.666667
   Becke's b parameter  XBeta (SCF)     ...  0.004200
   Becke's b parameter  XBeta (CP-SCF)  ...  0.004200
Correlation functional (SCF)            ... LYP
Correlation functional (CP-SCF)         ... LYP
 LDA part of GGA corr.  LDAOpt (SCF)    ... VWN-3
 LDA part of GGA corr.  LDAOpt (CP-SCF) ... VWN-3
Hybrid DFT                              ... on
   Exchange mixing (SCF)                ...  0.530
   Exchange mixing (CP-SCF)             ...  0.530
   GGA exch. scaling(SCF)               ...  0.470
   GGA exch. scaling (CP-SCF)           ...  0.470
   GGA corr. scaling (SCF)              ...  0.730
   GGA corr. scaling (CP-SCF)           ...  0.730
The RIJCOSX approximation is active
Variables per vector in CP-SCF ... 9798
Number of vectors sought       ... 1
Calculating the xc-kernel      ... done

Solving the CP-SCF equations by a DIIS algorithm

-----------------
CP-SCF ITERATIONS
-----------------
  Iteration   0: MaxR=  0.086220767
  Iteration   1: MaxR=  0.038512008
  Iteration   2: MaxR=  0.010468566
  Iteration   3: MaxR=  0.004688864
  Iteration   4: MaxR=  0.002351631
  Iteration   5: MaxR=  0.001004290
  Iteration   6: MaxR=  0.000459253
  Iteration   7: MaxR=  0.000210109
  Iteration   8: MaxR=  0.000096104
  Iteration   9: MaxR=  0.000042329
  Iteration  10: MaxR=  0.000021528
  Iteration  11: MaxR=  0.000011496
  Iteration  12: MaxR=  0.000005323
  Iteration  13: MaxR=  0.000002306
  Iteration  14: MaxR=  0.000000845
  Iteration  15: MaxR=  0.000000399
  Iteration  16: MaxR=  0.000000179
  Iteration  17: MaxR=  0.000000086
  Iteration  18: MaxR=  0.000000038
  Iteration  19: MaxR=  0.000000016
  Iteration  20: MaxR=  0.000000007
                              *** THE CP-SCF HAS CONVERGED *** 
done
Finalizing the relaxed density                   ... done
Transforming P to the AO basis                   ... done
Storing the relaxed density                      ... done

------------------------------------
ENERGY WEIGHTED DENSITY FINALIZATION
------------------------------------

Gathering the parts of the W-matrix              ... done
Forming the Z-density                            ... done
Transforming Z to the AO basis                   ... done
Calculating G(Z)                                 ... done
Finalizing the W-matrix                          ... done
Transforming W to the AO basis and storing       ... done
Entering the RIJONX and RIJCOSX sections
Starting the three-index derivative integrals:
Operator 0  - Memory available             ...  1000 MB
Operator 0  - Memory needed per MO         ...   1.0 MB
Operator 0  - Number of orbitals per batch ... 46
Operator 0  - Number of batches            ... 1

OPERATOR  0   PASS   0:  MOs     0 ...   45

----------------------------------
MP2 DERIVATIVE INTEGRAL GENERATION
----------------------------------


Input Correlated Electron Density   ... PbMACl3_mp2_11.orca.pmp2re
Input Energy Weighted Density       ... PbMACl3_mp2_11.orca.wmp2.tmp
Input SCF Electron Density          ... PbMACl3_mp2_11.orca.scfp.tmp

One-Electron Terms    ...
  ECP gradient                                           ... One-Electron Terms done

-----------------------------------------------------------
MP2 COSX Grid Generation
-----------------------------------------------------------

General Integration Accuracy     IntAcc      ...  4.340
Radial Grid Type                 RadialGrid  ... Gauss-Chebyshev
Angular Grid (max. acc.)         AngularGrid ... Lebedev-302
Angular grid pruning method      GridPruning ... 3 (G Style)
Weight generation scheme         WeightScheme... Becke
Basis function cutoff            BFCut       ...    1.0000e-11
Integration weight cutoff        WCut        ...    1.0000e-14
Grids for H and He will be reduced by one unit

# of grid points (after initial pruning)     ...  57718 (   0.0 sec)
# of grid points (after weights+screening)   ...  54535 (   0.2 sec)
nearest neighbour list constructed           ...    0.0 sec
Grid point re-assignment to atoms done       ...    0.0 sec
Grid point division into batches done        ...    0.3 sec
Reduced shell lists constructed in    1.2 sec

Total number of grid points                  ...    54535
Total number of batches                      ...      858
Average number of points per batch           ...       63
Average number of grid points per atom       ...     4545
Average number of shells per batch           ...    54.92 (54.37%)
Average number of basis functions per batch  ...   144.56 (55.81%)
Average number of large shells per batch     ...    41.32 (75.24%)
Average number of large basis fcns per batch ...   106.37 (73.58%)
Maximum spatial batch extension              ...  35.78, 35.78, 31.07 au
Average spatial batch extension              ...   3.01,  3.16,  3.08 au

Overlap Fitting                  UseSFitting ... on
Two electron COSX terms .... 
Integration Timings:
Total Time                  =   120.0 sec
Basis fcn evaluation        =     0.4 sec
Density evaluation          =     1.4 sec
Integral evaluation         =   115.6 sec
K(P) evaluation             =     1.2 sec
                          .... COSX two electron terms done
COSX two-electron contribution to the gradient
     0:    -0.021435    -0.027777    -0.024004
     1:     0.058981     0.061905     0.079002
     2:     0.102336    -0.080476     0.109108
     3:    -0.106156     0.100468     0.091777
     4:     0.096099     0.099332    -0.096494
     5:    -0.098904    -0.097198     0.092221
     6:     0.105488    -0.123300    -0.115202
     7:    -0.120145     0.084227    -0.134513
     8:     0.004601    -0.020153    -0.043311
     9:     0.037939    -0.003717    -0.008613
    10:    -0.032080     0.019399    -0.007288
    11:    -0.026509    -0.012713     0.057659
Exchange-correlation gradient    ... done
Dispersion correction            ... 
Entering the calculation of the dispersion correction...

Checking the input atom types...

Done
done

                *********************************************
                * UNRELAXED MP2 DENSITY POPULATION ANALYSIS *
                *********************************************

------------------------------------------------------------------------------
                           ORCA POPULATION ANALYSIS
------------------------------------------------------------------------------
Input electron density              ... PbMACl3_mp2_11.orca.pmp2ur
BaseName (.gbw .S,...)              ... PbMACl3_mp2_11.orca

                    ********************************
                    * MULLIKEN POPULATION ANALYSIS *
                    ********************************

-----------------------
MULLIKEN ATOMIC CHARGES
-----------------------
   0 C :   -0.259242
   1 N :   -0.323750
   2 H :    0.166041
   3 H :    0.183910
   4 H :    0.162858
   5 H :    0.294399
   6 H :    0.278671
   7 H :    0.294950
   8 Pb:    0.778502
   9 Cl:   -0.312316
  10 Cl:   -0.732296
  11 Cl:   -0.531728
Sum of atomic charges:   -0.0000000

--------------------------------
MULLIKEN REDUCED ORBITAL CHARGES
--------------------------------
  0 C s       :     3.281419  s :     3.281419
      pz      :     0.968259  p :     2.895600
      px      :     0.996912
      py      :     0.930430
      dz2     :     0.008089  d :     0.075047
      dxz     :     0.019078
      dyz     :     0.019239
      dx2y2   :     0.008866
      dxy     :     0.019775
      f0      :     0.000523  f :     0.007176
      f+1     :     0.000682
      f-1     :     0.000911
      f+2     :     0.000886
      f-2     :     0.002780
      f+3     :     0.000673
      f-3     :     0.000720
  1 N s       :     3.427090  s :     3.427090
      pz      :     1.292384  p :     3.834195
      px      :     1.265146
      py      :     1.276664
      dz2     :     0.007855  d :     0.059223
      dxz     :     0.015611
      dyz     :     0.012937
      dx2y2   :     0.008131
      dxy     :     0.014690
      f0      :     0.000263  f :     0.003242
      f+1     :     0.000325
      f-1     :     0.000353
      f+2     :     0.000374
      f-2     :     0.001293
      f+3     :     0.000297
      f-3     :     0.000338
  2 H s       :     0.811103  s :     0.811103
      pz      :     0.008854  p :     0.022856
      px      :     0.008107
      py      :     0.005896
  3 H s       :     0.793007  s :     0.793007
      pz      :     0.007398  p :     0.023084
      px      :     0.007759
      py      :     0.007926
  4 H s       :     0.814359  s :     0.814359
      pz      :     0.006972  p :     0.022782
      px      :     0.007740
      py      :     0.008071
  5 H s       :     0.660490  s :     0.660490
      pz      :     0.010455  p :     0.045111
      px      :     0.015830
      py      :     0.018826
  6 H s       :     0.682202  s :     0.682202
      pz      :     0.013307  p :     0.039127
      px      :     0.010762
      py      :     0.015057
  7 H s       :     0.670741  s :     0.670741
      pz      :     0.013022  p :     0.034309
      px      :     0.013389
      py      :     0.007898
  8 Pbs       :     3.853356  s :     3.853356
      pz      :     2.370953  p :     7.303874
      px      :     2.581313
      py      :     2.351609
      dz2     :     2.004519  d :     9.940287
      dxz     :     1.988007
      dyz     :     2.007266
      dx2y2   :     1.949083
      dxy     :     1.991412
      f0      :     0.025347  f :     0.123980
      f+1     :     0.016471
      f-1     :     0.011125
      f+2     :     0.019508
      f-2     :     0.007213
      f+3     :     0.017914
      f-3     :     0.026403
  9 Cls       :     5.872839  s :     5.872839
      pz      :     3.837515  p :    11.254028
      px      :     3.609862
      py      :     3.806651
      dz2     :     0.021119  d :     0.159583
      dxz     :     0.041847
      dyz     :     0.011606
      dx2y2   :     0.042091
      dxy     :     0.042920
      f0      :     0.002926  f :     0.025866
      f+1     :     0.003914
      f-1     :     0.000853
      f+2     :     0.004590
      f-2     :     0.001331
      f+3     :     0.005705
      f-3     :     0.006548
 10 Cls       :     5.978710  s :     5.978710
      pz      :     3.961205  p :    11.710743
      px      :     3.836164
      py      :     3.913375
      dz2     :     0.007973  d :     0.040233
      dxz     :     0.007919
      dyz     :     0.007649
      dx2y2   :     0.008149
      dxy     :     0.008544
      f0      :     0.000370  f :     0.002609
      f+1     :     0.000373
      f-1     :     0.000372
      f+2     :     0.000367
      f-2     :     0.000369
      f+3     :     0.000378
      f-3     :     0.000379
 11 Cls       :     5.954043  s :     5.954043
      pz      :     3.738510  p :    11.517938
      px      :     3.905312
      py      :     3.874116
      dz2     :     0.015669  d :     0.056429
      dxz     :     0.011223
      dyz     :     0.010020
      dx2y2   :     0.008758
      dxy     :     0.010759
      f0      :     0.000637  f :     0.003317
      f+1     :     0.000536
      f-1     :     0.000460
      f+2     :     0.000403
      f-2     :     0.000426
      f+3     :     0.000454
      f-3     :     0.000403


                     *******************************
                     * LOEWDIN POPULATION ANALYSIS *
                     *******************************

----------------------
LOEWDIN ATOMIC CHARGES
----------------------
   0 C :   -0.266349
   1 N :    0.093961
   2 H :    0.129793
   3 H :    0.135913
   4 H :    0.126905
   5 H :    0.154237
   6 H :    0.168469
   7 H :    0.204493
   8 Pb:   -0.185415
   9 Cl:    0.385178
  10 Cl:   -0.674899
  11 Cl:   -0.272286

-------------------------------
LOEWDIN REDUCED ORBITAL CHARGES
-------------------------------
  0 C s       :     2.853948  s :     2.853948
      pz      :     1.027173  p :     3.068971
      px      :     1.040839
      py      :     1.000959
      dz2     :     0.030922  d :     0.304907
      dxz     :     0.077915
      dyz     :     0.081929
      dx2y2   :     0.030706
      dxy     :     0.083435
      f0      :     0.005600  f :     0.038523
      f+1     :     0.004190
      f-1     :     0.006007
      f+2     :     0.004323
      f-2     :     0.007537
      f+3     :     0.005135
      f-3     :     0.005731
  1 N s       :     2.999274  s :     2.999274
      pz      :     1.240151  p :     3.725326
      px      :     1.239593
      py      :     1.245582
      dz2     :     0.019514  d :     0.170724
      dxz     :     0.044189
      dyz     :     0.042495
      dx2y2   :     0.021083
      dxy     :     0.043443
      f0      :     0.001596  f :     0.010716
      f+1     :     0.001309
      f-1     :     0.001606
      f+2     :     0.001193
      f-2     :     0.001885
      f+3     :     0.001410
      f-3     :     0.001718
  2 H s       :     0.805738  s :     0.805738
      pz      :     0.024014  p :     0.064469
      px      :     0.022380
      py      :     0.018075
  3 H s       :     0.799155  s :     0.799155
      pz      :     0.020292  p :     0.064931
      px      :     0.023213
      py      :     0.021426
  4 H s       :     0.808697  s :     0.808697
      pz      :     0.021167  p :     0.064398
      px      :     0.021465
      py      :     0.021766
  5 H s       :     0.705860  s :     0.705860
      pz      :     0.035408  p :     0.139903
      px      :     0.048644
      py      :     0.055851
  6 H s       :     0.718960  s :     0.718960
      pz      :     0.037181  p :     0.112571
      px      :     0.033283
      py      :     0.042106
  7 H s       :     0.692447  s :     0.692447
      pz      :     0.038533  p :     0.103060
      px      :     0.038030
      py      :     0.026498
  8 Pbs       :     3.484613  s :     3.484613
      pz      :     2.498615  p :     7.885092
      px      :     2.951280
      py      :     2.435197
      dz2     :     2.125703  d :    10.441392
      dxz     :     2.110105
      dyz     :     2.029925
      dx2y2   :     2.075124
      dxy     :     2.100535
      f0      :     0.077293  f :     0.374318
      f+1     :     0.047891
      f-1     :     0.020075
      f+2     :     0.067403
      f-2     :     0.010309
      f+3     :     0.059895
      f-3     :     0.091452
  9 Cls       :     5.357581  s :     5.357581
      pz      :     3.589764  p :    10.847820
      px      :     3.696842
      py      :     3.561214
      dz2     :     0.047613  d :     0.312331
      dxz     :     0.067910
      dyz     :     0.013870
      dx2y2   :     0.114819
      dxy     :     0.068118
      f0      :     0.008809  f :     0.097089
      f+1     :     0.018727
      f-1     :     0.001873
      f+2     :     0.014413
      f-2     :     0.002655
      f+3     :     0.029183
      f-3     :     0.021428
 10 Cls       :     5.942852  s :     5.942852
      pz      :     3.959218  p :    11.688419
      px      :     3.829279
      py      :     3.899922
      dz2     :     0.008125  d :     0.040999
      dxz     :     0.007949
      dyz     :     0.007657
      dx2y2   :     0.008270
      dxy     :     0.008998
      f0      :     0.000371  f :     0.002630
      f+1     :     0.000375
      f-1     :     0.000376
      f+2     :     0.000369
      f-2     :     0.000369
      f+3     :     0.000389
      f-3     :     0.000381
 11 Cls       :     5.787822  s :     5.787822
      pz      :     3.711603  p :    11.413232
      px      :     3.869381
      py      :     3.832247
      dz2     :     0.024870  d :     0.067204
      dxz     :     0.011343
      dyz     :     0.010185
      dx2y2   :     0.008954
      dxy     :     0.011852
      f0      :     0.001085  f :     0.004028
      f+1     :     0.000622
      f-1     :     0.000531
      f+2     :     0.000408
      f-2     :     0.000434
      f+3     :     0.000535
      f-3     :     0.000414


                      *****************************
                      * MAYER POPULATION ANALYSIS *
                      *****************************

  NA   - Mulliken gross atomic population
  ZA   - Total nuclear charge
  QA   - Mulliken gross atomic charge
  VA   - Mayer's total valence
  BVA  - Mayer's bonded valence
  FA   - Mayer's free valence

  ATOM       NA         ZA         QA         VA         BVA        FA
  0 C      6.2592     6.0000    -0.2592     3.8531     3.7400     0.1130
  1 N      7.3237     7.0000    -0.3237     3.4186     3.2772     0.1414
  2 H      0.8340     1.0000     0.1660     0.9647     0.9465     0.0182
  3 H      0.8161     1.0000     0.1839     0.9614     0.9437     0.0177
  4 H      0.8371     1.0000     0.1629     0.9621     0.9439     0.0182
  5 H      0.7056     1.0000     0.2944     1.0067     0.9856     0.0211
  6 H      0.7213     1.0000     0.2787     0.9373     0.9174     0.0199
  7 H      0.7051     1.0000     0.2949     0.9758     0.9535     0.0223
  8 Pb    21.2215    22.0000     0.7785     2.5897     2.2251     0.3646
  9 Cl    17.3123    17.0000    -0.3123     1.6086     1.3636     0.2450
 10 Cl    17.7323    17.0000    -0.7323     0.7242     0.4559     0.2683
 11 Cl    17.5317    17.0000    -0.5317     1.0386     0.7767     0.2619

  Mayer bond orders larger than 0.1
B(  0-C ,  1-N ) :   0.8706 B(  0-C ,  2-H ) :   0.9523 B(  0-C ,  3-H ) :   0.9482 
B(  0-C ,  4-H ) :   0.9522 B(  1-N ,  5-H ) :   0.7534 B(  1-N ,  6-H ) :   0.8552 
B(  1-N ,  7-H ) :   0.8346 B(  5-H , 11-Cl) :   0.2275 B(  7-H , 10-Cl) :   0.1072 
B(  8-Pb,  9-Cl) :   1.2863 B(  8-Pb, 10-Cl) :   0.3566 B(  8-Pb, 11-Cl) :   0.5526 



                *******************************************
                * RELAXED MP2 DENSITY POPULATION ANALYSIS *
                *******************************************

------------------------------------------------------------------------------
                           ORCA POPULATION ANALYSIS
------------------------------------------------------------------------------
Input electron density              ... PbMACl3_mp2_11.orca.pmp2re
BaseName (.gbw .S,...)              ... PbMACl3_mp2_11.orca

                    ********************************
                    * MULLIKEN POPULATION ANALYSIS *
                    ********************************

-----------------------
MULLIKEN ATOMIC CHARGES
-----------------------
   0 C :   -0.276646
   1 N :   -0.318232
   2 H :    0.169647
   3 H :    0.186604
   4 H :    0.166538
   5 H :    0.285973
   6 H :    0.275538
   7 H :    0.290154
   8 Pb:    0.712971
   9 Cl:   -0.291629
  10 Cl:   -0.694757
  11 Cl:   -0.506161
Sum of atomic charges:   -0.0000000

--------------------------------
MULLIKEN REDUCED ORBITAL CHARGES
--------------------------------
  0 C s       :     3.284287  s :     3.284287
      pz      :     0.974461  p :     2.914560
      px      :     1.002736
      py      :     0.937363
      dz2     :     0.008302  d :     0.070788
      dxz     :     0.017512
      dyz     :     0.017708
      dx2y2   :     0.009023
      dxy     :     0.018243
      f0      :     0.000504  f :     0.007011
      f+1     :     0.000672
      f-1     :     0.000895
      f+2     :     0.000880
      f-2     :     0.002696
      f+3     :     0.000659
      f-3     :     0.000705
  1 N s       :     3.427116  s :     3.427116
      pz      :     1.290856  p :     3.830239
      px      :     1.264177
      py      :     1.275205
      dz2     :     0.007985  d :     0.057692
      dxz     :     0.014964
      dyz     :     0.012324
      dx2y2   :     0.008277
      dxy     :     0.014142
      f0      :     0.000259  f :     0.003186
      f+1     :     0.000322
      f-1     :     0.000353
      f+2     :     0.000373
      f-2     :     0.001247
      f+3     :     0.000293
      f-3     :     0.000338
  2 H s       :     0.807879  s :     0.807879
      pz      :     0.008658  p :     0.022474
      px      :     0.007960
      py      :     0.005856
  3 H s       :     0.790720  s :     0.790720
      pz      :     0.007288  p :     0.022676
      px      :     0.007610
      py      :     0.007778
  4 H s       :     0.811056  s :     0.811056
      pz      :     0.006871  p :     0.022406
      px      :     0.007617
      py      :     0.007918
  5 H s       :     0.669370  s :     0.669370
      pz      :     0.010371  p :     0.044658
      px      :     0.015641
      py      :     0.018646
  6 H s       :     0.685674  s :     0.685674
      pz      :     0.013202  p :     0.038789
      px      :     0.010685
      py      :     0.014902
  7 H s       :     0.675946  s :     0.675946
      pz      :     0.012866  p :     0.033900
      px      :     0.013187
      py      :     0.007847
  8 Pbs       :     3.881167  s :     3.881167
      pz      :     2.388916  p :     7.348781
      px      :     2.570907
      py      :     2.388958
      dz2     :     2.002039  d :     9.934069
      dxz     :     1.987568
      dyz     :     2.007746
      dx2y2   :     1.948641
      dxy     :     1.988076
      f0      :     0.024883  f :     0.123012
      f+1     :     0.016410
      f-1     :     0.011014
      f+2     :     0.019482
      f-2     :     0.007195
      f+3     :     0.017839
      f-3     :     0.026190
  9 Cls       :     5.868865  s :     5.868865
      pz      :     3.828630  p :    11.231996
      px      :     3.605610
      py      :     3.797756
      dz2     :     0.021815  d :     0.164582
      dxz     :     0.042882
      dyz     :     0.011797
      dx2y2   :     0.043878
      dxy     :     0.044211
      f0      :     0.002957  f :     0.026186
      f+1     :     0.003961
      f-1     :     0.000860
      f+2     :     0.004644
      f-2     :     0.001349
      f+3     :     0.005777
      f-3     :     0.006639
 10 Cls       :     5.979449  s :     5.979449
      pz      :     3.958359  p :    11.672578
      px      :     3.813521
      py      :     3.900699
      dz2     :     0.007958  d :     0.040112
      dxz     :     0.007889
      dyz     :     0.007651
      dx2y2   :     0.008097
      dxy     :     0.008517
      f0      :     0.000371  f :     0.002619
      f+1     :     0.000374
      f-1     :     0.000373
      f+2     :     0.000367
      f-2     :     0.000370
      f+3     :     0.000380
      f-3     :     0.000382
 11 Cls       :     5.954871  s :     5.954871
      pz      :     3.727591  p :    11.491546
      px      :     3.899424
      py      :     3.864530
      dz2     :     0.015612  d :     0.056407
      dxz     :     0.011117
      dyz     :     0.010119
      dx2y2   :     0.008757
      dxy     :     0.010802
      f0      :     0.000640  f :     0.003336
      f+1     :     0.000538
      f-1     :     0.000466
      f+2     :     0.000403
      f-2     :     0.000427
      f+3     :     0.000458
      f-3     :     0.000404


                     *******************************
                     * LOEWDIN POPULATION ANALYSIS *
                     *******************************

----------------------
LOEWDIN ATOMIC CHARGES
----------------------
   0 C :   -0.276108
   1 N :    0.090088
   2 H :    0.131758
   3 H :    0.137551
   4 H :    0.128890
   5 H :    0.151637
   6 H :    0.167678
   7 H :    0.203061
   8 Pb:   -0.219363
   9 Cl:    0.382833
  10 Cl:   -0.641015
  11 Cl:   -0.257009

-------------------------------
LOEWDIN REDUCED ORBITAL CHARGES
-------------------------------
  0 C s       :     2.855222  s :     2.855222
      pz      :     1.031577  p :     3.082322
      px      :     1.045112
      py      :     1.005633
      dz2     :     0.031169  d :     0.300286
      dxz     :     0.076240
      dyz     :     0.080130
      dx2y2   :     0.030885
      dxy     :     0.081862
      f0      :     0.005586  f :     0.038278
      f+1     :     0.004165
      f-1     :     0.005978
      f+2     :     0.004301
      f-2     :     0.007422
      f+3     :     0.005103
      f-3     :     0.005722
  1 N s       :     3.000897  s :     3.000897
      pz      :     1.241032  p :     3.727775
      px      :     1.240877
      py      :     1.245866
      dz2     :     0.019722  d :     0.170462
      dxz     :     0.043901
      dyz     :     0.042224
      dx2y2   :     0.021318
      dxy     :     0.043297
      f0      :     0.001614  f :     0.010778
      f+1     :     0.001311
      f-1     :     0.001614
      f+2     :     0.001192
      f-2     :     0.001898
      f+3     :     0.001420
      f-3     :     0.001730
  2 H s       :     0.803725  s :     0.803725
      pz      :     0.023966  p :     0.064517
      px      :     0.022375
      py      :     0.018176
  3 H s       :     0.797531  s :     0.797531
      pz      :     0.020309  p :     0.064918
      px      :     0.023196
      py      :     0.021413
  4 H s       :     0.806633  s :     0.806633
      pz      :     0.021216  p :     0.064477
      px      :     0.021492
      py      :     0.021769
  5 H s       :     0.708668  s :     0.708668
      pz      :     0.035364  p :     0.139696
      px      :     0.048540
      py      :     0.055791
  6 H s       :     0.719675  s :     0.719675
      pz      :     0.037249  p :     0.112647
      px      :     0.033295
      py      :     0.042103
  7 H s       :     0.693999  s :     0.693999
      pz      :     0.038553  p :     0.102940
      px      :     0.037933
      py      :     0.026454
  8 Pbs       :     3.494839  s :     3.494839
      pz      :     2.510440  p :     7.920582
      px      :     2.945518
      py      :     2.464624
      dz2     :     2.122243  d :    10.431629
      dxz     :     2.107290
      dyz     :     2.030136
      dx2y2   :     2.074951
      dxy     :     2.097008
      f0      :     0.076509  f :     0.372313
      f+1     :     0.048130
      f-1     :     0.019855
      f+2     :     0.066717
      f-2     :     0.010261
      f+3     :     0.060268
      f-3     :     0.090572
  9 Cls       :     5.360082  s :     5.360082
      pz      :     3.585145  p :    10.836834
      px      :     3.694103
      py      :     3.557586
      dz2     :     0.048857  d :     0.322671
      dxz     :     0.070038
      dyz     :     0.014100
      dx2y2   :     0.118203
      dxy     :     0.071473
      f0      :     0.008878  f :     0.097580
      f+1     :     0.018757
      f-1     :     0.001888
      f+2     :     0.014527
      f-2     :     0.002697
      f+3     :     0.029219
      f-3     :     0.021614
 10 Cls       :     5.944272  s :     5.944272
      pz      :     3.956783  p :    11.653184
      px      :     3.808164
      py      :     3.888237
      dz2     :     0.008118  d :     0.040921
      dxz     :     0.007925
      dyz     :     0.007659
      dx2y2   :     0.008226
      dxy     :     0.008993
      f0      :     0.000372  f :     0.002638
      f+1     :     0.000376
      f-1     :     0.000376
      f+2     :     0.000369
      f-2     :     0.000370
      f+3     :     0.000391
      f-3     :     0.000384
 11 Cls       :     5.790941  s :     5.790941
      pz      :     3.703736  p :    11.394137
      px      :     3.865079
      py      :     3.825322
      dz2     :     0.025258  d :     0.067852
      dxz     :     0.011312
      dyz     :     0.010367
      dx2y2   :     0.008956
      dxy     :     0.011958
      f0      :     0.001108  f :     0.004080
      f+1     :     0.000631
      f-1     :     0.000541
      f+2     :     0.000408
      f-2     :     0.000436
      f+3     :     0.000541
      f-3     :     0.000415


                      *****************************
                      * MAYER POPULATION ANALYSIS *
                      *****************************

  NA   - Mulliken gross atomic population
  ZA   - Total nuclear charge
  QA   - Mulliken gross atomic charge
  VA   - Mayer's total valence
  BVA  - Mayer's bonded valence
  FA   - Mayer's free valence

  ATOM       NA         ZA         QA         VA         BVA        FA
  0 C      6.2766     6.0000    -0.2766     3.8551     3.7424     0.1127
  1 N      7.3182     7.0000    -0.3182     3.4219     3.2809     0.1410
  2 H      0.8304     1.0000     0.1696     0.9638     0.9457     0.0181
  3 H      0.8134     1.0000     0.1866     0.9605     0.9428     0.0177
  4 H      0.8335     1.0000     0.1665     0.9610     0.9429     0.0182
  5 H      0.7140     1.0000     0.2860     1.0147     0.9937     0.0209
  6 H      0.7245     1.0000     0.2755     0.9422     0.9225     0.0197
  7 H      0.7098     1.0000     0.2902     0.9821     0.9601     0.0220
  8 Pb    21.2870    22.0000     0.7130     2.6887     2.3312     0.3575
  9 Cl    17.2916    17.0000    -0.2916     1.6535     1.4097     0.2438
 10 Cl    17.6948    17.0000    -0.6948     0.7852     0.5215     0.2637
 11 Cl    17.5062    17.0000    -0.5062     1.0828     0.8223     0.2604

  Mayer bond orders larger than 0.1
B(  0-C ,  1-N ) :   0.8793 B(  0-C ,  2-H ) :   0.9496 B(  0-C ,  3-H ) :   0.9457 
B(  0-C ,  4-H ) :   0.9495 B(  1-N ,  5-H ) :   0.7494 B(  1-N ,  6-H ) :   0.8507 
B(  1-N ,  7-H ) :   0.8319 B(  5-H , 11-Cl) :   0.2396 B(  7-H , 10-Cl) :   0.1151 
B(  8-Pb,  9-Cl) :   1.3144 B(  8-Pb, 10-Cl) :   0.4073 B(  8-Pb, 11-Cl) :   0.5752 



-------
TIMINGS
-------

Total time                :  687.764 sec
Integral trafo            :    3.058 sec (  0.4%)
I/O of integrals          :    0.145 sec (  0.0%)
K(i,j) Operators          :   10.574 sec (  1.5%)
T(i,j) pair energies      :    1.570 sec (  0.2%)
V-calculation             :    0.014 sec (  0.0%)
V**(-1/2)                 :    0.033 sec (  0.0%)
Gamma(ia|P)               :   10.314 sec (  1.5%)
Gamma-Trafo               :    1.373 sec (  0.2%)
D(virtual)                :    4.509 sec (  0.7%)
D(internal)               :    5.108 sec (  0.7%)
W(virtual)                :    9.064 sec (  1.3%)
W(internal)               :   15.135 sec (  2.2%)
L(virtual)                :    6.297 sec (  0.9%)
L(internal)               :    0.269 sec (  0.0%)
G(D)                      :   17.453 sec (  2.5%)
G(Z)                      :   17.322 sec (  2.5%)
Z-Vector Solution         :  440.034 sec ( 64.0%)
Z-Vector Solution         :  440.034 sec ( 64.0%)
3-Index Derivative 
+ Separable RIJ part      :    6.261 sec (  0.9%)
2-Index Derivative 
+ Separable RIJ part      :    0.044 sec (  0.0%)
Separable Gradient (COSX) :  136.187 sec ( 19.8%)


---------------------------------------
MP2 TOTAL ENERGY:    -1669.158183097 Eh
---------------------------------------

The final MP2 gradient
  0:  -0.00305559  -0.00403412   0.00017556
  1:   0.00321816   0.00038339   0.01937824
  2:   0.00366552  -0.00119251   0.00335898
  3:  -0.00205700   0.00368020   0.00326147
  4:   0.00263113   0.00238640  -0.00289213
  5:   0.00423893   0.00539977  -0.00426207
  6:   0.00140597  -0.01509386  -0.01551134
  7:  -0.00282771  -0.00211983  -0.01050881
  8:   0.91006773   0.08327535  -0.04851159
  9:  -0.87901411  -0.07781540   0.05748571
 10:  -0.02549488   0.00907370  -0.00412251
 11:  -0.01247783  -0.00395782   0.00246890

-----------------------------------
NORM OF THE MP2 GRADIENT:  1.273424
-----------------------------------

Entering the calculation of the dispersion correction...

Checking the input atom types...

Done


-------------------------------------------------------------------------------
                          DFT DISPERSION CORRECTION                            
                                                                               
                                DFTD3 V2.1  Rev 6                               
                          USING Becke-Johnson damping                          
-------------------------------------------------------------------------------
The B2PLYP functional is recognized
Active option DFTDOPT                   ...         4   

molecular C6(AA) [au] = 4936.686444 


            DFT-D V3
 parameters
 s6 scaling factor         :     0.6400 
 a1 scaling factor         :     0.3065 
 s8 scaling factor         :     0.9147 
 a2 scaling factor         :     5.0570 
 ad hoc parameters k1-k3   :    16.0000     1.3333    -4.0000 

 Edisp/kcal,au: -8.042358360548  -0.012816312478 
 E6   /kcal   :  -3.681544336 
 E8   /kcal   :  -4.360814025 
 % E8         :  54.223075239 

-------------------------   ----------------
Dispersion correction           -0.012816312
-------------------------   ----------------


-------------------------   --------------------
FINAL SINGLE POINT ENERGY     -1669.170999409306
-------------------------   --------------------


                            ***************************************
                            *     ORCA property calculations      *
                            ***************************************


  WARNING: The energy has been calculated at the MP2 level but the densities
           used in the property calculations are still SCF densities
           MP2 response densities have not been calculated 
           use %mp2 Density relaxed end
           or  %mp2 Density unrelaxed end

                                    ---------------------
                                    Active property flags
                                    ---------------------
   (+) Dipole Moment


------------------------------------------------------------------------------
                       ORCA ELECTRIC PROPERTIES CALCULATION
------------------------------------------------------------------------------

Dipole Moment Calculation                       ... on
Quadrupole Moment Calculation                   ... off
Polarizability Calculation                      ... off
GBWName                                         ... PbMACl3_mp2_11.orca.gbw
Electron density file                           ... PbMACl3_mp2_11.orca.scfp.tmp

-------------
DIPOLE MOMENT
-------------
                                X             Y             Z
Electronic contribution:    -11.32260     -99.79794     -74.48688
Nuclear contribution   :     16.95535      99.85676      75.48845
                        -----------------------------------------
Total Dipole Moment    :      5.63274       0.05882       1.00157
                        -----------------------------------------
Magnitude (a.u.)       :      5.72140
Magnitude (Debye)      :     14.54264


                         *** MP2 UNRELAXED DENSITY ***

------------------------------------------------------------------------------
                       ORCA ELECTRIC PROPERTIES CALCULATION
------------------------------------------------------------------------------

Dipole Moment Calculation                       ... on
Quadrupole Moment Calculation                   ... off
Polarizability Calculation                      ... off
GBWName                                         ... PbMACl3_mp2_11.orca.gbw
Electron density file                           ... PbMACl3_mp2_11.orca.pmp2ur

-------------
DIPOLE MOMENT
-------------
                                X             Y             Z
Electronic contribution:    -11.37132     -99.77789     -74.47705
Nuclear contribution   :     16.95535      99.85676      75.48845
                        -----------------------------------------
Total Dipole Moment    :      5.58402       0.07887       1.01140
                        -----------------------------------------
Magnitude (a.u.)       :      5.67542
Magnitude (Debye)      :     14.42578


                           *** MP2 RELAXED DENSITY ***

------------------------------------------------------------------------------
                       ORCA ELECTRIC PROPERTIES CALCULATION
------------------------------------------------------------------------------

Dipole Moment Calculation                       ... on
Quadrupole Moment Calculation                   ... off
Polarizability Calculation                      ... off
GBWName                                         ... PbMACl3_mp2_11.orca.gbw
Electron density file                           ... PbMACl3_mp2_11.orca.pmp2re

-------------
DIPOLE MOMENT
-------------
                                X             Y             Z
Electronic contribution:    -11.58405     -99.70949     -74.49497
Nuclear contribution   :     16.95535      99.85676      75.48845
                        -----------------------------------------
Total Dipole Moment    :      5.37130       0.14727       0.99348
                        -----------------------------------------
Magnitude (a.u.)       :      5.46439
Magnitude (Debye)      :     13.88937


Timings for individual modules:

Sum of individual times         ...      959.399 sec (=  15.990 min)
GTO integral calculation        ...        1.219 sec (=   0.020 min)   0.1 %
SCF iterations                  ...      269.218 sec (=   4.487 min)  28.1 %
MP2 module                      ...      688.961 sec (=  11.483 min)  71.8 %
                             ****ORCA TERMINATED NORMALLY****
TOTAL RUN TIME: 0 days 0 hours 16 minutes 1 seconds 91 msec
