
                                 *****************
                                 * O   R   C   A *
                                 *****************

           --- An Ab Initio, DFT and Semiempirical electronic structure package ---

                  #######################################################
                  #                        -***-                        #
                  #  Department of molecular theory and spectroscopy    #
                  #              Directorship: Frank Neese              #
                  # Max Planck Institute for Chemical Energy Conversion #
                  #                  D-45470 Muelheim/Ruhr              #
                  #                       Germany                       #
                  #                                                     #
                  #                  All rights reserved                #
                  #                        -***-                        #
                  #######################################################


                         Program Version 3.0.3 - RELEASE   -


 With contributions from (in alphabetic order):
   Ute Becker             : Parallelization
   Dmytro Bykov           : SCF Hessian
   Dmitry Ganyushin       : Spin-Orbit,Spin-Spin,Magnetic field MRCI
   Andreas Hansen         : Spin unrestricted coupled pair/coupled cluster methods
   Dimitrios Liakos       : Extrapolation schemes; parallel MDCI
   Robert Izsak           : Overlap fitted RIJCOSX, COSX-SCS-MP3
   Christian Kollmar      : KDIIS, OOCD, Brueckner-CCSD(T), CCSD density
   Simone Kossmann        : Meta GGA functionals, TD-DFT gradient, OOMP2, MP2 Hessian
   Taras Petrenko         : DFT Hessian,TD-DFT gradient, ASA and ECA modules, normal mode analysis, Resonance Raman, ABS, FL, XAS/XES, NRVS
   Christoph Reimann      : Effective Core Potentials
   Michael Roemelt        : Restricted open shell CIS
   Christoph Riplinger    : Improved optimizer, TS searches, QM/MM, DLPNO-CCSD
   Barbara Sandhoefer     : DKH picture change effects
   Igor Schapiro          : Molecular dynamics
   Kantharuban Sivalingam : CASSCF convergence, NEVPT2
   Boris Wezisla          : Elementary symmetry handling
   Frank Wennmohs         : Technical directorship


 We gratefully acknowledge several colleagues who have allowed us to
 interface, adapt or use parts of their codes:
   Stefan Grimme, W. Hujo, H. Kruse, T. Risthaus : VdW corrections, initial TS optimization,
                                                   DFT functionals, gCP
   Ed Valeev                                     : LibInt (2-el integral package), F12 methods
   Garnet Chan, S. Sharma, R. Olivares           : DMRG
   Ulf Ekstrom                                   : XCFun DFT Library
   Mihaly Kallay                                 : mrcc  (arbitrary order and MRCC methods)
   Andreas Klamt, Michael Diedenhofen            : otool_cosmo (COSMO solvation model)
   Frank Weinhold                                : gennbo (NPA and NBO analysis)
   Christopher J. Cramer and Donald G. Truhlar   : smd solvation model


 Your calculation uses the libint2 library for the computation of 2-el integrals
 For citations please refer to: http://libint.valeyev.net

 This ORCA versions uses:
   CBLAS   interface :  Fast vector & matrix operations
   LAPACKE interface :  Fast linear algebra routines
   SCALAPACK package :  Parallel linear algebra routines


Your calculation utilizes the basis: Ahlrichs-TZV
Cite in your paper:
H - Kr: A. Schaefer, H. Horn and R. Ahlrichs, J. Chem. Phys. 97, 2571 (1992).

The def2-TZV basis will be loaded
Cite in your paper:
 	F. Weigend, R. Ahlrichs, Phys. Chem. Chem. Phys. 2005, 7, 3297.

Your calculation utilizes the atom-pairwise dispersion correction
with the Becke-Johnson damping scheme (D3BJ)
Cite in your paper:
S.Grimme, S.Ehrlich, L.Goerigk, J Comput Chem, (2011), 32, 1456–1465 
S.Grimme, J.Antony, S.Ehrlich and H.Krieg, J.Chem.Phys., 132, (2010), 154104 
   

================================================================================
                                        WARNINGS
                       Please study these warnings very carefully!
================================================================================

WARNING: The RI method has been chosen with no auxiliary basis (AUX or GTOAUX in BASIS block)
        Standard TZV/J expansion basis used (GTOAUX=TZV_J)

Now building the actual basis set
cite the ECPs for Pb [SD(60,MDF)] as follows:
  B. Metz, H. Stoll, M. Dolg, J. Chem. Phys. 113, 2563 (2000).

ECP parameters for Pb [SD(60,MDF)] have been obtained from:
  pseudopotential library of the Stuttgart/Cologne group
  http://www.theochem.uni-stuttgart.de/pseudopotentials/

cite the ECP basis sets for Pb [DEF2-TZVP] as follows:
  F. Weigend, R. Ahlrichs; Phys. Chem. Chem. Phys. 7, 3297(2005).

ECP basis sets for Pb [DEF2-TZVP] have been obtained from:
  Turbomole basis set library
  ftp://ftp.chemie.uni-karlsruhe.de/pub/basen/



INFO   : the flag for use of LIBINT has been found!

================================================================================
                                       INPUT FILE
================================================================================
NAME = PbMACl3_mp2_12.orca
|  1> ! RIJCOSX RI-B2PLYP D3BJ def2-TZVP ECP{def2-TZVP} TIGHTSCF Grid5 FinalGrid6 SlowConv MORead
|  2> %method
|  3>  RunTyp Gradient
|  4>  end
|  5> %maxcore 1000
|  6> %moinp "previous.gbw"
|  7> *xyz 0 1
|  8> C 2.905719 3.576013 2.873338
|  9> N 2.134625 2.614408 2.046990
| 10> H 3.548796 3.021424 3.560517
| 11> H 2.209179 4.197444 3.440826
| 12> H 3.515705 4.204875 2.220874
| 13> H 1.516852 1.975028 2.601630
| 14> H 2.717740 1.973704 1.464858
| 15> H 1.486857 3.059076 1.361735
| 16> Pb -0.288257 0.131547 0.209487
| 17> Cl 2.846983 0.268387 0.089874
| 18> Cl -0.680867 2.735046 -0.108798
| 19> Cl 1.042186 0.320768 2.851419
| 20> *
| 21> 
| 22>                          ****END OF INPUT****
================================================================================

                     *******************************
                     * Energy+Gradient Calculation *
                     *******************************

---------------------------------
CARTESIAN COORDINATES (ANGSTROEM)
---------------------------------
  C      2.905719    3.576013    2.873338
  N      2.134625    2.614408    2.046990
  H      3.548796    3.021424    3.560517
  H      2.209179    4.197444    3.440826
  H      3.515705    4.204875    2.220874
  H      1.516852    1.975028    2.601630
  H      2.717740    1.973704    1.464858
  H      1.486857    3.059076    1.361735
  Pb    -0.288257    0.131547    0.209487
  Cl     2.846983    0.268387    0.089874
  Cl    -0.680867    2.735046   -0.108798
  Cl     1.042186    0.320768    2.851419

----------------------------
CARTESIAN COORDINATES (A.U.)
----------------------------
  NO LB      ZA    FRAG    MASS        X           Y           Z
   0 C     6.0000    0    12.011          5.491013132131525          6.757685221342137          5.429821910189021
   1 N     7.0000    0    14.007          4.033856648621652          4.940515122332791          3.868250498875463
   2 H     1.0000    0     1.008          6.706252545155202          5.709663894456884          6.728402025170893
   3 H     1.0000    0     1.008          4.174743290810016          7.932019622470954          6.502218814475724
   4 H     1.0000    0     1.008          6.643719617657614          7.946062177372124          4.196843637946225
   5 H     1.0000    0     1.008          2.866434865690719          3.732262026826222          4.916368201793546
   6 H     1.0000    0     1.008          5.135784303203143          3.729760029424910          2.768180445083617
   7 H     1.0000    0     1.008          2.809752530303751          5.780815862851287          2.573306216975256
   8 Pb   22.0000*   0   207.200  -0.544726786185738  0.248587803738939  0.395873058616761
   9 Cl   17.0000    0    35.453          5.380018177929527          0.507177927904723          0.169837246560039
  10 Cl   17.0000    0    35.453         -1.286652163624561          5.168487903676784         -0.205598423918364
  11 Cl   17.0000    0    35.453          1.969446120606854          0.606163672525652          5.388401003059601
* core charge reduced due to ECP

--------------------------------
INTERNAL COORDINATES (ANGSTROEM)
--------------------------------
 C      0   0   0   0.000000     0.000     0.000
 N      1   0   0   1.483955     0.000     0.000
 H      1   2   0   1.092397   109.099     0.000
 H      1   2   3   1.092423   109.061   240.173
 H      1   2   3   1.092364   109.305   120.114
 H      2   1   3   1.047891   114.015    60.210
 H      2   1   3   1.043744   114.712   299.789
 H      2   1   3   1.042549   114.361   179.707
 Pb     6   2   1   3.518407   105.206   174.901
 Cl     7   2   1   2.194400   149.251   174.882
 Cl     8   2   1   2.639411   145.501   202.520
 Cl     6   2   1   1.739045   144.820   228.951

---------------------------
INTERNAL COORDINATES (A.U.)
---------------------------
 C      0   0   0   0.000000     0.000     0.000
 N      1   0   0   2.804268     0.000     0.000
 H      1   2   0   2.064332   109.099     0.000
 H      1   2   3   2.064379   109.061   240.173
 H      1   2   3   2.064269   109.305   120.114
 H      2   1   3   1.980227   114.015    60.210
 H      2   1   3   1.972391   114.712   299.789
 H      2   1   3   1.970131   114.361   179.707
 Pb     6   2   1   6.648826   105.206   174.901
 Cl     7   2   1   4.146815   149.251   174.882
 Cl     8   2   1   4.987764   145.501   202.520
 Cl     6   2   1   3.286319   144.820   228.951

---------------------
BASIS SET INFORMATION
---------------------
There are 5 groups of distinct atoms

 Group   1 Type C   : 11s6p2d1f contracted to 5s3p2d1f pattern {62111/411/11/1}
 Group   2 Type N   : 11s6p2d1f contracted to 5s3p2d1f pattern {62111/411/11/1}
 Group   3 Type H   : 5s1p contracted to 3s1p pattern {311/1}
 Group   4 Type Pb  : 10s9p8d2f contracted to 6s5p3d2f pattern {421111/33111/611/11}
 Group   5 Type Cl  : 14s9p3d1f contracted to 5s5p2d1f pattern {73211/51111/21/1}

Atom   0C    basis set group =>   1
Atom   1N    basis set group =>   2
Atom   2H    basis set group =>   3
Atom   3H    basis set group =>   3
Atom   4H    basis set group =>   3
Atom   5H    basis set group =>   3
Atom   6H    basis set group =>   3
Atom   7H    basis set group =>   3
Atom   8Pb   basis set group =>   4
Atom   9Cl   basis set group =>   5
Atom  10Cl   basis set group =>   5
Atom  11Cl   basis set group =>   5
-------------------------------
AUXILIARY BASIS SET INFORMATION
-------------------------------
There are 5 groups of distinct atoms

 Group   1 Type C   : 12s5p4d2f1g contracted to 6s4p3d1f1g pattern {711111/2111/211/2/1}
 Group   2 Type N   : 12s5p4d2f1g contracted to 6s4p3d1f1g pattern {711111/2111/211/2/1}
 Group   3 Type H   : 5s2p1d contracted to 3s1p1d pattern {311/2/1}
 Group   4 Type Pb  : 31s12p8d6f3g contracted to 31s12p8d6f3g pattern {1111111111111111111111111111111/111111111111/11111111/111111/111}
 Group   5 Type Cl  : 14s5p5d2f1g contracted to 8s4p3d1f1g pattern {71111111/2111/311/2/1}

Atom   0C    basis set group =>   1
Atom   1N    basis set group =>   2
Atom   2H    basis set group =>   3
Atom   3H    basis set group =>   3
Atom   4H    basis set group =>   3
Atom   5H    basis set group =>   3
Atom   6H    basis set group =>   3
Atom   7H    basis set group =>   3
Atom   8Pb   basis set group =>   4
Atom   9Cl   basis set group =>   5
Atom  10Cl   basis set group =>   5
Atom  11Cl   basis set group =>   5

-------------------------
ECP PARAMETER INFORMATION
-------------------------

 Group 1, Type Pb ECP SD(60,MDF) (replacing 60 core electrons, lmax=5)

Atom   8Pb   ECP group =>   1


------------------------------------------------------------------------------
                           ORCA GTO INTEGRAL CALCULATION
                           -- RI-GTO INTEGRALS CHOSEN --
------------------------------------------------------------------------------

                         BASIS SET STATISTICS AND STARTUP INFO

Gaussian basis set:
 # of primitive gaussian shells          ...  186
 # of primitive gaussian functions       ...  420
 # of contracted shells                  ...  101
 # of contracted basis functions         ...  259
 Highest angular momentum                ...    3
 Maximum contraction depth               ...    7
Auxiliary gaussian basis set:
 # of primitive gaussian shells          ...  237
 # of primitive gaussian functions       ...  643
 # of contracted shells                  ...  171
 # of contracted aux-basis functions     ...  493
 Highest angular momentum                ...    4
 Maximum contraction depth               ...    7
Ratio of auxiliary to basis functions    ...  1.90
Integral package used                  ... LIBINT
 One Electron integrals                  
   ECP integrals                         ... done
 Ordering auxiliary basis shells         ... done
 Integral threshhold             Thresh  ...  2.500e-11
 Primitive cut-off               TCut    ...  2.500e-12
 Pre-screening matrix                    ... done
 Shell pair data                         ... 
 Ordering of the shell pairs             ... done (   0.001 sec) 4387 of 5151 pairs
 Determination of significant pairs      ... done (   0.000 sec)
 Creation of shell pair data             ... done (   0.001 sec)
 Storage of shell pair data              ... done (   0.001 sec)
 Shell pair data done in (   0.003 sec)
 Computing two index integrals           ... done
 Cholesky decomposition of the V-matrix  ... done


Timings:
 Total evaluation time                   ...   0.935 sec (  0.016 min)
 One electron matrix time                ...   0.356 sec (  0.006 min) = 38.1%
 Schwartz matrix evaluation time         ...   0.276 sec (  0.005 min) = 29.5%
 Two index repulsion integral time       ...   0.011 sec (  0.000 min) =  1.1%
 Cholesky decomposition of V             ...   0.258 sec (  0.004 min) = 27.6%
 Three index repulsion integral time     ...   0.000 sec (  0.000 min) =  0.0%

-------------------------------------------------------------------------------
                                 ORCA SCF
-------------------------------------------------------------------------------

------------
SCF SETTINGS
------------
Hamiltonian:
 Density Functional     Method          .... DFT(GTOs)
 Exchange Functional    Exchange        .... B88
   X-Alpha parameter    XAlpha          ....  0.666667
   Becke's b parameter  XBeta           ....  0.004200
 Correlation Functional Correlation     .... LYP
 LDA part of GGA corr.  LDAOpt          .... VWN-3
 Gradients option       PostSCFGGA      .... off
 Hybrid DFT is turned on
   Fraction HF Exchange ScalHFX         ....  0.530000
   Scaling of DF-GGA-X  ScalDFX         ....  0.470000
   Scaling of DF-GGA-C  ScalDFC         ....  0.730000
   Scaling of DF-LDA-C  ScalLDAC        ....  0.730000
   Perturbative correction              ....  0.270000
 RI-approximation to the Coulomb term is turned on
   Number of auxiliary basis functions  .... 493
   RIJ-COSX (HFX calculated with COS-X)).... on


General Settings:
 Integral files         IntName         .... PbMACl3_mp2_12.orca
 Hartree-Fock type      HFTyp           .... RHF
 Total Charge           Charge          ....    0
 Multiplicity           Mult            ....    1
 Number of Electrons    NEL             ....   92
 Basis Dimension        Dim             ....  259
 Nuclear Repulsion      ENuc            ....    566.1030046951 Eh

Convergence Acceleration:
 DIIS                   CNVDIIS         .... on
   Start iteration      DIISMaxIt       ....     0
   Startup error        DIISStart       ....  0.200000
   # of expansion vecs  DIISMaxEq       ....     5
   Bias factor          DIISBfac        ....   1.050
   Max. coefficient     DIISMaxC        ....  10.000
 Newton-Raphson         CNVNR           .... off
 SOSCF                  CNVSOSCF        .... on
   Start iteration      SOSCFMaxIt      ....   150
   Startup grad/error   SOSCFStart      ....  0.001000
 Level Shifting         CNVShift        .... on
   Level shift para.    LevelShift      ....    0.2500
   Turn off err/grad.   ShiftErr        ....    0.0000
 Zerner damping         CNVZerner       .... off
 Static damping         CNVDamp         .... on
   Fraction old density DampFac         ....    0.8500
   Max. Damping (<1)    DampMax         ....    0.9800
   Min. Damping (>=0)   DampMin         ....    0.0000
   Turn off err/grad.   DampErr         ....    0.0300
 Fernandez-Rico         CNVRico         .... off

SCF Procedure:
 Maximum # iterations   MaxIter         ....   125
 SCF integral mode      SCFMode         .... Direct
   Integral package                     .... LIBINT
 Reset frequeny         DirectResetFreq ....    20
 Integral Threshold     Thresh          ....  2.500e-11 Eh
 Primitive CutOff       TCut            ....  2.500e-12 Eh

Convergence Tolerance:
 Convergence Check Mode ConvCheckMode   .... Total+1el-Energy
 Energy Change          TolE            ....  1.000e-08 Eh
 1-El. energy change                    ....  1.000e-05 Eh
 Orbital Gradient       TolG            ....  1.000e-05
 Orbital Rotation angle TolX            ....  1.000e-05
 DIIS Error             TolErr          ....  5.000e-07


Diagonalization of the overlap matrix:
Smallest eigenvalue                        ... 1.123e-03
Time for diagonalization                   ...    0.113 sec
Threshold for overlap eigenvalues          ... 1.000e-08
Number of eigenvalues below threshold      ... 0
Time for construction of square roots      ...    0.015 sec
Total time needed                          ...    0.128 sec

---------------------
INITIAL GUESS: MOREAD
---------------------
Guess MOs are being read from file: previous.gbw
Input Geometry matches current geometry (good)
Input basis set matches current basis set (good)
MOs were renormalized
MOs were reorthogonalized (Schmidt)
                      ------------------
                      INITIAL GUESS DONE (   0.3 sec)
                      ------------------
-------------------
DFT GRID GENERATION
-------------------

General Integration Accuracy     IntAcc      ...  5.010
Radial Grid Type                 RadialGrid  ... Gauss-Chebyshev
Angular Grid (max. acc.)         AngularGrid ... Lebedev-434
Angular grid pruning method      GridPruning ... 3 (G Style)
Weight generation scheme         WeightScheme... Becke
Basis function cutoff            BFCut       ...    1.0000e-11
Integration weight cutoff        WCut        ...    1.0000e-14
Grids for H and He will be reduced by one unit

# of grid points (after initial pruning)     ... 115882 (   0.1 sec)
# of grid points (after weights+screening)   ... 108912 (   0.3 sec)
nearest neighbour list constructed           ...    0.0 sec
Grid point re-assignment to atoms done       ...    0.0 sec
Grid point division into batches done        ...    1.2 sec
Reduced shell lists constructed in    2.9 sec

Total number of grid points                  ...   108912
Total number of batches                      ...     1708
Average number of points per batch           ...       63
Average number of grid points per atom       ...     9076
Average number of shells per batch           ...    53.53 (53.00%)
Average number of basis functions per batch  ...   140.37 (54.20%)
Average number of large shells per batch     ...    40.19 (75.09%)
Average number of large basis fcns per batch ...   102.91 (73.32%)
Maximum spatial batch extension              ...  31.96, 33.20, 31.63 au
Average spatial batch extension              ...   2.46,  2.41,  2.48 au

Time for grid setup =    3.361 sec

--------------------
COSX GRID GENERATION
--------------------

General Integration Accuracy     IntAcc      ...  3.340
Radial Grid Type                 RadialGrid  ... Gauss-Chebyshev
Angular Grid (max. acc.)         AngularGrid ... Lebedev-50
Angular grid pruning method      GridPruning ... 3 (G Style)
Weight generation scheme         WeightScheme... Becke
Basis function cutoff            BFCut       ...    1.0000e-11
Integration weight cutoff        WCut        ...    1.0000e-14
Grids for H and He will be reduced by one unit

# of grid points (after initial pruning)     ...   6578 (   0.0 sec)
# of grid points (after weights+screening)   ...   6199 (   0.0 sec)
nearest neighbour list constructed           ...    0.0 sec
Grid point re-assignment to atoms done       ...    0.0 sec
Grid point division into batches done        ...    0.0 sec
Reduced shell lists constructed in    0.1 sec

Total number of grid points                  ...     6199
Total number of batches                      ...      104
Average number of points per batch           ...       59
Average number of grid points per atom       ...      517
Average number of shells per batch           ...    65.03 (64.38%)
Average number of basis functions per batch  ...   173.87 (67.13%)
Average number of large shells per batch     ...    50.16 (77.14%)
Average number of large basis fcns per batch ...   131.10 (75.40%)
Maximum spatial batch extension              ...  36.32, 26.27, 31.04 au
Average spatial batch extension              ...   6.53,  6.55,  6.69 au

Overlap Fitting                  UseSFitting ... on
Constructing numerical overlap ... done (      0.1 sec)
Inverting numerical overlap    ... done (      0.1 sec)
Obtaining analytic overlap     ... done (      0.0 sec)
Final contraction and storage  ... done (      0.0 sec)


General Integration Accuracy     IntAcc      ...  3.670
Radial Grid Type                 RadialGrid  ... Gauss-Chebyshev
Angular Grid (max. acc.)         AngularGrid ... Lebedev-50
Angular grid pruning method      GridPruning ... 3 (G Style)
Weight generation scheme         WeightScheme... Becke
Basis function cutoff            BFCut       ...    1.0000e-11
Integration weight cutoff        WCut        ...    1.0000e-14
Grids for H and He will be reduced by one unit

# of grid points (after initial pruning)     ...   8124 (   0.0 sec)
# of grid points (after weights+screening)   ...   7638 (   0.0 sec)
nearest neighbour list constructed           ...    0.0 sec
Grid point re-assignment to atoms done       ...    0.0 sec
Grid point division into batches done        ...    0.0 sec
Reduced shell lists constructed in    0.2 sec

Total number of grid points                  ...     7638
Total number of batches                      ...      123
Average number of points per batch           ...       62
Average number of grid points per atom       ...      636
Average number of shells per batch           ...    64.92 (64.28%)
Average number of basis functions per batch  ...   173.29 (66.91%)
Average number of large shells per batch     ...    50.19 (77.32%)
Average number of large basis fcns per batch ...   130.73 (75.44%)
Maximum spatial batch extension              ...  29.97, 26.94, 33.62 au
Average spatial batch extension              ...   6.21,  6.14,  6.31 au

Overlap Fitting                  UseSFitting ... on
Constructing numerical overlap ... done (      0.1 sec)
Inverting numerical overlap    ... done (      0.0 sec)
Obtaining analytic overlap     ... done (      0.0 sec)
Final contraction and storage  ... done (      0.0 sec)


General Integration Accuracy     IntAcc      ...  4.010
Radial Grid Type                 RadialGrid  ... Gauss-Chebyshev
Angular Grid (max. acc.)         AngularGrid ... Lebedev-110
Angular grid pruning method      GridPruning ... 3 (G Style)
Weight generation scheme         WeightScheme... Becke
Basis function cutoff            BFCut       ...    1.0000e-11
Integration weight cutoff        WCut        ...    1.0000e-14
Grids for H and He will be reduced by one unit

# of grid points (after initial pruning)     ...  15170 (   0.0 sec)
# of grid points (after weights+screening)   ...  14392 (   0.0 sec)
nearest neighbour list constructed           ...    0.0 sec
Grid point re-assignment to atoms done       ...    0.0 sec
Grid point division into batches done        ...    0.0 sec
Reduced shell lists constructed in    0.3 sec

Total number of grid points                  ...    14392
Total number of batches                      ...      231
Average number of points per batch           ...       62
Average number of grid points per atom       ...     1199
Average number of shells per batch           ...    60.53 (59.94%)
Average number of basis functions per batch  ...   161.01 (62.17%)
Average number of large shells per batch     ...    46.13 (76.20%)
Average number of large basis fcns per batch ...   119.90 (74.47%)
Maximum spatial batch extension              ...  39.26, 30.16, 35.11 au
Average spatial batch extension              ...   4.92,  4.89,  5.10 au

Overlap Fitting                  UseSFitting ... on
Constructing numerical overlap ... done (      0.2 sec)
Inverting numerical overlap    ... done (      0.0 sec)
Obtaining analytic overlap     ... done (      0.0 sec)
Final contraction and storage  ... done (      0.0 sec)

Time for X-Grid setup             =    1.276 sec
--------------
SCF ITERATIONS
--------------
ITER       Energy         Delta-E        Max-DP      RMS-DP      [F,P]     Damp
               ***  Starting incremental Fock matrix formation  ***
  0  -1668.9734378424   0.000000000000 0.03696786  0.00024891  0.0682492 0.8500
  1  -1668.9764040170  -0.002966174613 0.03351252  0.00024094  0.0581037 0.8500
                               ***Turning on DIIS***
  2  -1668.9790564575  -0.002652440518 0.02858434  0.00020948  0.0494598 0.8500
  3  -1668.9813335418  -0.002277084209 0.02405265  0.00017552  0.0420948 0.8500
  4  -1668.9832835430  -0.001950001221 0.02057096  0.00014892  0.0357911 0.8500
  5  -1668.9849494211  -0.001665878111 0.01791555  0.00012933  0.0304077 0.8500
  6  -1668.9863790215  -0.001429600463 0.10378948  0.00075031  0.0258336 0.0000
                      *** Initiating the SOSCF procedure ***
                           *** Shutting down DIIS ***
                      *** Re-Reading the Fockian *** 
                      *** Removing any level shift *** 
ITER      Energy       Delta-E        Grad      Rot      Max-DP    RMS-DP
  7  -1668.99492205  -0.0085430325  0.000602  0.000602  0.002892  0.000028
               *** Restarting incremental Fock matrix formation ***
  8  -1668.99493729  -0.0000152332  0.000306  0.001035  0.000707  0.000016
  9  -1668.99494103  -0.0000037463  0.000110  0.000612  0.000534  0.000009
 10  -1668.99494159  -0.0000005555  0.000033  0.000078  0.000216  0.000002
 11  -1668.99494158   0.0000000133  0.000008  0.000030  0.000048  0.000001
 12  -1668.99494158  -0.0000000074  0.000004  0.000007  0.000025  0.000000
                  ***Gradient check signals convergence***
              ***Rediagonalizing the Fockian in SOSCF/NRSCF***

               *****************************************************
               *                     SUCCESS                       *
               *           SCF CONVERGED AFTER  13 CYCLES          *
               *****************************************************

Old exchange energy                            =    -59.154354704 Eh
New exchange energy                            =    -59.158186136 Eh
Exchange energy change after final integration =     -0.003831432 Eh
Total energy after final integration           =  -1668.998773002 Eh
Final COS-X integration done in                =    28.464 sec

----------------
TOTAL SCF ENERGY
----------------

Total Energy       :        -1668.99877300 Eh          -45415.76551 eV

Components:
Nuclear Repulsion  :          566.10300470 Eh           15404.44590 eV
Electronic Energy  :        -2235.10177770 Eh          -60820.21141 eV

One Electron Energy:        -3503.22672941 Eh          -95327.64567 eV
Two Electron Energy:         1268.12495172 Eh           34507.43426 eV

Virial components:
Potential Energy   :        -3206.40289037 Eh          -87250.65838 eV
Kinetic Energy     :         1537.40411737 Eh           41834.89288 eV
Virial Ratio       :            2.08559536


DFT components:
N(Alpha)           :       46.000016908954 electrons
N(Beta)            :       46.000016908954 electrons
N(Total)           :       92.000033817908 electrons
E(X)               :      -52.545111392089 Eh       
E(C)               :       -2.599593940162 Eh       
E(XC)              :      -55.144705332251 Eh       

---------------
SCF CONVERGENCE
---------------

  Last Energy change         ...    1.2461e-08  Tolerance :   1.0000e-08
  Last MAX-Density change    ...    1.5046e-13  Tolerance :   1.0000e-07
  Last RMS-Density change    ...    1.1379e-15  Tolerance :   5.0000e-09
  Last Orbital Gradient      ...    1.1576e-06  Tolerance :   1.0000e-05
  Last Orbital Rotation      ...    2.9294e-06  Tolerance :   1.0000e-05

             **** THE GBW FILE WAS UPDATED (PbMACl3_mp2_12.orca.gbw) ****
             **** DENSITY FILE WAS UPDATED (PbMACl3_mp2_12.orca.scfp.tmp) ****
             **** ENERGY FILE WAS UPDATED (PbMACl3_mp2_12.orca.en.tmp) ****
----------------
ORBITAL ENERGIES
----------------

  NO   OCC          E(Eh)            E(eV) 
   0   2.0000    -102.872901     -2799.3140 
   1   2.0000    -102.838731     -2798.3841 
   2   2.0000    -102.813594     -2797.7001 
   3   2.0000     -14.927368      -406.1943 
   4   2.0000     -10.689902      -290.8870 
   5   2.0000      -9.878566      -268.8094 
   6   2.0000      -9.846710      -267.9426 
   7   2.0000      -9.818981      -267.1881 
   8   2.0000      -7.515937      -204.5190 
   9   2.0000      -7.513762      -204.4599 
  10   2.0000      -7.513717      -204.4586 
  11   2.0000      -7.483599      -203.6391 
  12   2.0000      -7.482366      -203.6055 
  13   2.0000      -7.481545      -203.5832 
  14   2.0000      -7.456208      -202.8937 
  15   2.0000      -7.454635      -202.8509 
  16   2.0000      -7.454117      -202.8368 
  17   2.0000      -5.855416      -159.3340 
  18   2.0000      -3.627564       -98.7110 
  19   2.0000      -3.625011       -98.6416 
  20   2.0000      -3.623817       -98.6091 
  21   2.0000      -1.112781       -30.2803 
  22   2.0000      -1.015379       -27.6299 
  23   2.0000      -1.013784       -27.5865 
  24   2.0000      -1.012559       -27.5531 
  25   2.0000      -1.012326       -27.5468 
  26   2.0000      -1.009395       -27.4670 
  27   2.0000      -0.883606       -24.0441 
  28   2.0000      -0.871479       -23.7141 
  29   2.0000      -0.834058       -22.6959 
  30   2.0000      -0.820848       -22.3364 
  31   2.0000      -0.641872       -17.4662 
  32   2.0000      -0.639356       -17.3978 
  33   2.0000      -0.576812       -15.6959 
  34   2.0000      -0.575960       -15.6727 
  35   2.0000      -0.502969       -13.6865 
  36   2.0000      -0.499775       -13.5996 
  37   2.0000      -0.379680       -10.3316 
  38   2.0000      -0.368807       -10.0358 
  39   2.0000      -0.363872        -9.9014 
  40   2.0000      -0.346643        -9.4326 
  41   2.0000      -0.340553        -9.2669 
  42   2.0000      -0.334262        -9.0957 
  43   2.0000      -0.312219        -8.4959 
  44   2.0000      -0.306322        -8.3355 
  45   2.0000      -0.289797        -7.8858 
  46   0.0000      -0.068513        -1.8643 
  47   0.0000      -0.047393        -1.2896 
  48   0.0000      -0.026553        -0.7225 
  49   0.0000       0.053698         1.4612 
  50   0.0000       0.096397         2.6231 
  51   0.0000       0.102659         2.7935 
  52   0.0000       0.118762         3.2317 
  53   0.0000       0.126301         3.4368 
  54   0.0000       0.128911         3.5078 
  55   0.0000       0.133941         3.6447 
  56   0.0000       0.147557         4.0152 
  57   0.0000       0.170114         4.6290 
  58   0.0000       0.186192         5.0665 
  59   0.0000       0.211119         5.7448 
  60   0.0000       0.215000         5.8505 
  61   0.0000       0.219694         5.9782 
  62   0.0000       0.251329         6.8390 
  63   0.0000       0.261474         7.1151 
  64   0.0000       0.264205         7.1894 
  65   0.0000       0.281836         7.6692 
  66   0.0000       0.287927         7.8349 
  67   0.0000       0.316585         8.6147 
  68   0.0000       0.336496         9.1565 
  69   0.0000       0.367421         9.9980 
  70   0.0000       0.406917        11.0728 
  71   0.0000       0.415432        11.3045 
  72   0.0000       0.426780        11.6133 
  73   0.0000       0.434407        11.8208 
  74   0.0000       0.453263        12.3339 
  75   0.0000       0.467331        12.7167 
  76   0.0000       0.467845        12.7307 
  77   0.0000       0.473259        12.8780 
  78   0.0000       0.474703        12.9173 
  79   0.0000       0.482816        13.1381 
  80   0.0000       0.487179        13.2568 
  81   0.0000       0.506751        13.7894 
  82   0.0000       0.513140        13.9632 
  83   0.0000       0.517125        14.0717 
  84   0.0000       0.522261        14.2114 
  85   0.0000       0.527250        14.3472 
  86   0.0000       0.538498        14.6533 
  87   0.0000       0.545513        14.8442 
  88   0.0000       0.548550        14.9268 
  89   0.0000       0.559300        15.2193 
  90   0.0000       0.569407        15.4943 
  91   0.0000       0.573005        15.5923 
  92   0.0000       0.582288        15.8449 
  93   0.0000       0.594195        16.1689 
  94   0.0000       0.595843        16.2137 
  95   0.0000       0.633733        17.2447 
  96   0.0000       0.640960        17.4414 
  97   0.0000       0.676103        18.3977 
  98   0.0000       0.681064        18.5327 
  99   0.0000       0.688080        18.7236 
 100   0.0000       0.711151        19.3514 
 101   0.0000       0.719145        19.5689 
 102   0.0000       0.733690        19.9647 
 103   0.0000       0.747494        20.3404 
 104   0.0000       0.762235        20.7415 
 105   0.0000       0.768550        20.9133 
 106   0.0000       0.783305        21.3148 
 107   0.0000       0.791657        21.5421 
 108   0.0000       0.799642        21.7594 
 109   0.0000       0.809175        22.0188 
 110   0.0000       0.830449        22.5977 
 111   0.0000       0.848783        23.0965 
 112   0.0000       0.876373        23.8473 
 113   0.0000       0.896189        24.3865 
 114   0.0000       0.920665        25.0526 
 115   0.0000       0.932553        25.3761 
 116   0.0000       1.005208        27.3531 
 117   0.0000       1.027550        27.9611 
 118   0.0000       1.030771        28.0487 
 119   0.0000       1.054864        28.7043 
 120   0.0000       1.069685        29.1076 
 121   0.0000       1.088363        29.6159 
 122   0.0000       1.100671        29.9508 
 123   0.0000       1.142605        31.0918 
 124   0.0000       1.177077        32.0299 
 125   0.0000       1.230994        33.4971 
 126   0.0000       1.250071        34.0162 
 127   0.0000       1.269215        34.5371 
 128   0.0000       1.366676        37.1891 
 129   0.0000       1.407415        38.2977 
 130   0.0000       1.511643        41.1339 
 131   0.0000       1.582461        43.0610 
 132   0.0000       1.593321        43.3565 
 133   0.0000       1.606774        43.7225 
 134   0.0000       1.615677        43.9648 
 135   0.0000       1.670459        45.4555 
 136   0.0000       1.741511        47.3889 
 137   0.0000       1.805685        49.1352 
 138   0.0000       1.817668        49.4613 
 139   0.0000       1.879749        51.1506 
 140   0.0000       1.892058        51.4855 
 141   0.0000       1.904123        51.8138 
 142   0.0000       1.912732        52.0481 
 143   0.0000       1.929889        52.5150 
 144   0.0000       1.933553        52.6146 
 145   0.0000       1.938750        52.7561 
 146   0.0000       1.965496        53.4839 
 147   0.0000       1.975556        53.7576 
 148   0.0000       1.979691        53.8701 
 149   0.0000       1.992396        54.2159 
 150   0.0000       1.995208        54.2924 
 151   0.0000       2.016670        54.8764 
 152   0.0000       2.043073        55.5948 
 153   0.0000       2.061865        56.1062 
 154   0.0000       2.067740        56.2661 
 155   0.0000       2.084798        56.7302 
 156   0.0000       2.086980        56.7896 
 157   0.0000       2.103563        57.2408 
 158   0.0000       2.116266        57.5865 
 159   0.0000       2.118537        57.6483 
 160   0.0000       2.125806        57.8461 
 161   0.0000       2.147588        58.4388 
 162   0.0000       2.153367        58.5961 
 163   0.0000       2.169807        59.0434 
 164   0.0000       2.184530        59.4441 
 165   0.0000       2.196077        59.7583 
 166   0.0000       2.206441        60.0403 
 167   0.0000       2.216191        60.3056 
 168   0.0000       2.239032        60.9272 
 169   0.0000       2.243203        61.0407 
 170   0.0000       2.247252        61.1508 
 171   0.0000       2.255388        61.3722 
 172   0.0000       2.261414        61.5362 
 173   0.0000       2.270385        61.7803 
 174   0.0000       2.278875        62.0113 
 175   0.0000       2.287378        62.2427 
 176   0.0000       2.291599        62.3576 
 177   0.0000       2.296365        62.4873 
 178   0.0000       2.303292        62.6758 
 179   0.0000       2.304794        62.7166 
 180   0.0000       2.326750        63.3141 
 181   0.0000       2.329593        63.3915 
 182   0.0000       2.334719        63.5309 
 183   0.0000       2.348708        63.9116 
 184   0.0000       2.352306        64.0095 
 185   0.0000       2.366880        64.4061 
 186   0.0000       2.380418        64.7745 
 187   0.0000       2.386618        64.9432 
 188   0.0000       2.388036        64.9818 
 189   0.0000       2.402967        65.3880 
 190   0.0000       2.408452        65.5373 
 191   0.0000       2.429648        66.1141 
 192   0.0000       2.451491        66.7085 
 193   0.0000       2.468755        67.1782 
 194   0.0000       2.480909        67.5090 
 195   0.0000       2.497601        67.9632 
 196   0.0000       2.505714        68.1840 
 197   0.0000       2.533123        68.9298 
 198   0.0000       2.572348        69.9971 
 199   0.0000       2.609751        71.0149 
 200   0.0000       2.617943        71.2378 
 201   0.0000       2.633535        71.6621 
 202   0.0000       2.640228        71.8443 
 203   0.0000       2.652628        72.1817 
 204   0.0000       2.674076        72.7653 
 205   0.0000       2.694862        73.3309 
 206   0.0000       2.793305        76.0097 
 207   0.0000       2.796185        76.0881 
 208   0.0000       2.829074        76.9830 
 209   0.0000       2.843371        77.3721 
 210   0.0000       3.023263        82.2672 
 211   0.0000       3.084444        83.9320 
 212   0.0000       3.132883        85.2501 
 213   0.0000       3.174373        86.3791 
 214   0.0000       3.188716        86.7694 
 215   0.0000       3.246138        88.3319 
 216   0.0000       3.313396        90.1621 
 217   0.0000       3.349525        91.1452 
 218   0.0000       3.417924        93.0064 
 219   0.0000       3.577929        97.3604 
 220   0.0000       3.597669        97.8975 
 221   0.0000       3.614690        98.3607 
 222   0.0000       3.801962       103.4566 
 223   0.0000       3.848776       104.7305 
 224   0.0000       3.953773       107.5876 
 225   0.0000       4.203351       114.3790 
 226   0.0000       4.224679       114.9593 
 227   0.0000       4.467885       121.5773 
 228   0.0000       4.494886       122.3121 
 229   0.0000       4.881151       132.8229 
 230   0.0000       4.882419       132.8574 
 231   0.0000       4.975967       135.4029 
 232   0.0000       5.018551       136.5617 
 233   0.0000       5.110299       139.0583 
 234   0.0000       5.145423       140.0141 
 235   0.0000       5.180317       140.9636 
 236   0.0000       5.339313       145.2901 
 237   0.0000       5.544548       150.8748 
 238   0.0000       5.585643       151.9931 
 239   0.0000       5.875541       159.8816 
 240   0.0000      11.032998       300.2231 
 241   0.0000      11.064922       301.0918 
 242   0.0000      11.089140       301.7508 
 243   0.0000      11.096668       301.9557 
 244   0.0000      11.104405       302.1662 
 245   0.0000      11.116857       302.5051 
 246   0.0000      11.138531       303.0948 
 247   0.0000      11.166642       303.8598 
 248   0.0000      11.225033       305.4487 
 249   0.0000      22.673478       616.9767 
 250   0.0000      24.925983       678.2705 
 251   0.0000      25.087870       682.6757 
 252   0.0000      25.236830       686.7291 
 253   0.0000      32.400913       881.6737 
 254   0.0000      35.434448       964.2203 
 255   0.0000      35.668786       970.5970 
 256   0.0000      35.717044       971.9102 
 257   0.0000      35.791344       973.9320 
 258   0.0000     123.532929      3361.5019 

                    ********************************
                    * MULLIKEN POPULATION ANALYSIS *
                    ********************************

-----------------------
MULLIKEN ATOMIC CHARGES
-----------------------
   0 C :   -0.249252
   1 N :   -0.315317
   2 H :    0.156108
   3 H :    0.145629
   4 H :    0.147092
   5 H :    0.301800
   6 H :    0.290754
   7 H :    0.274463
   8 Pb:    0.962641
   9 Cl:   -0.621910
  10 Cl:   -0.519492
  11 Cl:   -0.572516
Sum of atomic charges:   -0.0000000

--------------------------------
MULLIKEN REDUCED ORBITAL CHARGES
--------------------------------
  0 C s       :     3.267864  s :     3.267864
      pz      :     0.973371  p :     2.905114
      px      :     0.989565
      py      :     0.942178
      dz2     :     0.007644  d :     0.070260
      dxz     :     0.018178
      dyz     :     0.018094
      dx2y2   :     0.007540
      dxy     :     0.018804
      f0      :     0.000360  f :     0.006014
      f+1     :     0.000503
      f-1     :     0.000757
      f+2     :     0.000714
      f-2     :     0.002609
      f+3     :     0.000486
      f-3     :     0.000585
  1 N s       :     3.427277  s :     3.427277
      pz      :     1.281712  p :     3.836012
      px      :     1.289253
      py      :     1.265047
      dz2     :     0.005163  d :     0.049777
      dxz     :     0.012664
      dyz     :     0.012433
      dx2y2   :     0.006355
      dxy     :     0.013161
      f0      :     0.000142  f :     0.002250
      f+1     :     0.000170
      f-1     :     0.000209
      f+2     :     0.000215
      f-2     :     0.001157
      f+3     :     0.000163
      f-3     :     0.000194
  2 H s       :     0.822142  s :     0.822142
      pz      :     0.008241  p :     0.021749
      px      :     0.007720
      py      :     0.005789
  3 H s       :     0.832826  s :     0.832826
      pz      :     0.006902  p :     0.021545
      px      :     0.007277
      py      :     0.007366
  4 H s       :     0.831286  s :     0.831286
      pz      :     0.006812  p :     0.021622
      px      :     0.007362
      py      :     0.007448
  5 H s       :     0.640999  s :     0.640999
      pz      :     0.012116  p :     0.057200
      px      :     0.016286
      py      :     0.028798
  6 H s       :     0.668388  s :     0.668388
      pz      :     0.014273  p :     0.040858
      px      :     0.009973
      py      :     0.016612
  7 H s       :     0.691066  s :     0.691066
      pz      :     0.013419  p :     0.034471
      px      :     0.013303
      py      :     0.007750
  8 Pbs       :     3.954540  s :     3.954540
      pz      :     2.251706  p :     6.932554
      px      :     2.308921
      py      :     2.371927
      dz2     :     2.025362  d :    10.119000
      dxz     :     2.018345
      dyz     :     2.022129
      dx2y2   :     2.028518
      dxy     :     2.024646
      f0      :     0.004168  f :     0.031264
      f+1     :     0.005298
      f-1     :     0.004106
      f+2     :     0.004080
      f-2     :     0.001015
      f+3     :     0.006430
      f-3     :     0.006167
  9 Cls       :     5.968787  s :     5.968787
      pz      :     3.956361  p :    11.645568
      px      :     3.756100
      py      :     3.933106
      dz2     :     0.001514  d :     0.007315
      dxz     :     0.000868
      dyz     :     0.001309
      dx2y2   :     0.002981
      dxy     :     0.000643
      f0      :     0.000030  f :     0.000241
      f+1     :     0.000068
      f-1     :     0.000023
      f+2     :     0.000043
      f-2     :     0.000010
      f+3     :     0.000052
      f-3     :     0.000015
 10 Cls       :     5.961576  s :     5.961576
      pz      :     3.927185  p :    11.543108
      px      :     3.920396
      py      :     3.695527
      dz2     :     0.002269  d :     0.014184
      dxz     :     0.000532
      dyz     :     0.002409
      dx2y2   :     0.006438
      dxy     :     0.002536
      f0      :     0.000056  f :     0.000624
      f+1     :     0.000013
      f-1     :     0.000134
      f+2     :     0.000080
      f-2     :     0.000014
      f+3     :     0.000123
      f-3     :     0.000204
 11 Cls       :     5.960111  s :     5.960111
      pz      :     3.818702  p :    11.593772
      px      :     3.904396
      py      :     3.870674
      dz2     :     0.004557  d :     0.017626
      dxz     :     0.003883
      dyz     :     0.001760
      dx2y2   :     0.004674
      dxy     :     0.002751
      f0      :     0.000082  f :     0.001008
      f+1     :     0.000166
      f-1     :     0.000156
      f+2     :     0.000094
      f-2     :     0.000081
      f+3     :     0.000251
      f-3     :     0.000178


                     *******************************
                     * LOEWDIN POPULATION ANALYSIS *
                     *******************************

----------------------
LOEWDIN ATOMIC CHARGES
----------------------
   0 C :   -0.285608
   1 N :    0.065965
   2 H :    0.124963
   3 H :    0.120292
   4 H :    0.119969
   5 H :    0.089827
   6 H :    0.157683
   7 H :    0.181195
   8 Pb:    0.459672
   9 Cl:   -0.473636
  10 Cl:   -0.260151
  11 Cl:   -0.300172

-------------------------------
LOEWDIN REDUCED ORBITAL CHARGES
-------------------------------
  0 C s       :     2.853796  s :     2.853796
      pz      :     1.033804  p :     3.087730
      px      :     1.044275
      py      :     1.009651
      dz2     :     0.032054  d :     0.306983
      dxz     :     0.077620
      dyz     :     0.081663
      dx2y2   :     0.030869
      dxy     :     0.084778
      f0      :     0.005406  f :     0.037099
      f+1     :     0.004079
      f-1     :     0.005928
      f+2     :     0.004240
      f-2     :     0.006886
      f+3     :     0.004873
      f-3     :     0.005687
  1 N s       :     3.006367  s :     3.006367
      pz      :     1.248444  p :     3.758161
      px      :     1.248975
      py      :     1.260742
      dz2     :     0.016778  d :     0.159854
      dxz     :     0.041071
      dyz     :     0.040671
      dx2y2   :     0.019822
      dxy     :     0.041513
      f0      :     0.001456  f :     0.009652
      f+1     :     0.001101
      f-1     :     0.001441
      f+2     :     0.001001
      f-2     :     0.001884
      f+3     :     0.001204
      f-3     :     0.001565
  2 H s       :     0.812937  s :     0.812937
      pz      :     0.022730  p :     0.062100
      px      :     0.021467
      py      :     0.017903
  3 H s       :     0.818019  s :     0.818019
      pz      :     0.019330  p :     0.061689
      px      :     0.022125
      py      :     0.020234
  4 H s       :     0.818098  s :     0.818098
      pz      :     0.020755  p :     0.061933
      px      :     0.020647
      py      :     0.020531
  5 H s       :     0.716259  s :     0.716259
      pz      :     0.040806  p :     0.193914
      px      :     0.052040
      py      :     0.101069
  6 H s       :     0.719353  s :     0.719353
      pz      :     0.041351  p :     0.122964
      px      :     0.033805
      py      :     0.047807
  7 H s       :     0.715342  s :     0.715342
      pz      :     0.039177  p :     0.103463
      px      :     0.037669
      py      :     0.026617
  8 Pbs       :     3.875813  s :     3.875813
      pz      :     2.329078  p :     7.216164
      px      :     2.388987
      py      :     2.498099
      dz2     :     2.090253  d :    10.372262
      dxz     :     2.052384
      dyz     :     2.053018
      dx2y2   :     2.119660
      dxy     :     2.056946
      f0      :     0.008946  f :     0.076088
      f+1     :     0.013120
      f-1     :     0.011286
      f+2     :     0.009124
      f-2     :     0.002059
      f+3     :     0.014849
      f-3     :     0.016704
  9 Cls       :     5.883929  s :     5.883929
      pz      :     3.937118  p :    11.578686
      px      :     3.731617
      py      :     3.909951
      dz2     :     0.002095  d :     0.010612
      dxz     :     0.001495
      dyz     :     0.002319
      dx2y2   :     0.004114
      dxy     :     0.000589
      f0      :     0.000044  f :     0.000408
      f+1     :     0.000107
      f-1     :     0.000043
      f+2     :     0.000101
      f-2     :     0.000015
      f+3     :     0.000068
      f-3     :     0.000030
 10 Cls       :     5.796633  s :     5.796633
      pz      :     3.886890  p :    11.440871
      px      :     3.879954
      py      :     3.674027
      dz2     :     0.004139  d :     0.021591
      dxz     :     0.000593
      dyz     :     0.002163
      dx2y2   :     0.012236
      dxy     :     0.002460
      f0      :     0.000053  f :     0.001056
      f+1     :     0.000015
      f-1     :     0.000288
      f+2     :     0.000088
      f-2     :     0.000014
      f+3     :     0.000140
      f-3     :     0.000459
 11 Cls       :     5.807294  s :     5.807294
      pz      :     3.794646  p :    11.459292
      px      :     3.867987
      py      :     3.796660
      dz2     :     0.008045  d :     0.031343
      dxz     :     0.005574
      dyz     :     0.002808
      dx2y2   :     0.009240
      dxy     :     0.005677
      f0      :     0.000171  f :     0.002243
      f+1     :     0.000275
      f-1     :     0.000452
      f+2     :     0.000181
      f-2     :     0.000134
      f+3     :     0.000609
      f-3     :     0.000420


                      *****************************
                      * MAYER POPULATION ANALYSIS *
                      *****************************

  NA   - Mulliken gross atomic population
  ZA   - Total nuclear charge
  QA   - Mulliken gross atomic charge
  VA   - Mayer's total valence
  BVA  - Mayer's bonded valence
  FA   - Mayer's free valence

  ATOM       NA         ZA         QA         VA         BVA        FA
  0 C      6.2493     6.0000    -0.2493     3.8574     3.8574     0.0000
  1 N      7.3153     7.0000    -0.3153     3.2827     3.2827     0.0000
  2 H      0.8439     1.0000     0.1561     0.9649     0.9649    -0.0000
  3 H      0.8544     1.0000     0.1456     0.9625     0.9625     0.0000
  4 H      0.8529     1.0000     0.1471     0.9619     0.9619     0.0000
  5 H      0.6982     1.0000     0.3018     0.9865     0.9865     0.0000
  6 H      0.7092     1.0000     0.2908     0.9808     0.9808     0.0000
  7 H      0.7255     1.0000     0.2745     0.9540     0.9540     0.0000
  8 Pb    21.0374    22.0000     0.9626     1.7628     1.7628    -0.0000
  9 Cl    17.6219    17.0000    -0.6219     0.6564     0.6564    -0.0000
 10 Cl    17.5195    17.0000    -0.5195     0.8269     0.8269    -0.0000
 11 Cl    17.5725    17.0000    -0.5725     0.7409     0.7409    -0.0000

  Mayer bond orders larger than 0.1
B(  0-C ,  1-N ) :   0.9157 B(  0-C ,  2-H ) :   0.9702 B(  0-C ,  3-H ) :   0.9722 
B(  0-C ,  4-H ) :   0.9724 B(  1-N ,  5-H ) :   0.7343 B(  1-N ,  6-H ) :   0.8198 
B(  1-N ,  7-H ) :   0.8787 B(  5-H , 11-Cl) :   0.2584 B(  6-H ,  9-Cl) :   0.1675 
B(  8-Pb,  9-Cl) :   0.5034 B(  8-Pb, 10-Cl) :   0.7564 B(  8-Pb, 11-Cl) :   0.4976 


-------
TIMINGS
-------

Total SCF time: 0 days 0 hours 4 min 6 sec 

Total time                  ....     246.953 sec
Sum of individual times     ....     217.508 sec  ( 88.1%)

Fock matrix formation       ....     211.952 sec  ( 85.8%)
  Coulomb formation         ....     175.980 sec  ( 83.0% of F)
  Split-RI-J                ....      12.596 sec  (  5.9% of F)
  Chain of spheres X        ....     191.787 sec  ( 90.5% of F)
  COS-X 1 center corr.      ....       0.000 sec  (  0.0% of F)
  XC integration            ....      36.051 sec  ( 17.0% of F)
    Basis function eval.    ....      11.549 sec  ( 32.0% of XC)
    Density eval.           ....      10.207 sec  ( 28.3% of XC)
    XC-Functional eval.     ....       2.340 sec  (  6.5% of XC)
    XC-Potential eval.      ....      11.165 sec  ( 31.0% of XC)
Diagonalization             ....       0.318 sec  (  0.1%)
Density matrix formation    ....       0.037 sec  (  0.0%)
Population analysis         ....       0.081 sec  (  0.0%)
Initial guess               ....       0.261 sec  (  0.1%)
Orbital Transformation      ....       0.000 sec  (  0.0%)
Orbital Orthonormalization  ....       0.257 sec  (  0.1%)
DIIS solution               ....       0.089 sec  (  0.0%)
SOSCF solution              ....       0.132 sec  (  0.1%)
Grid generation             ....       4.637 sec  (  1.9%)

------------------------------------------------------------------------------
                              ORCA MP2 CALCULATION
------------------------------------------------------------------------------


----------------------
RI-MP2 ENERGY+GRADIENT
----------------------
Dimension of the basis                    ...  259
Memory devoted to MP2                     ... 1000 MB   
Data format for buffers                   ... DOUBLE
Compression type for matrix containers    ... UNCOMPRESSED
Overall scaling of the MP2 energy         ...   2.700e-01 Eh
Calculating two index integrals           ... done (    0.015 sec)
Cholesky decomposition of the V-matrix    ... done
Cholesky decomposition of V**-1           ... done (    0.062 sec)

-----------------
RI-TRANSFORMATION (AUX index driven)
-----------------

Dimension of the orbital-basis         ... 259
Dimension of the aux-basis             ... 493
Transformation of internal MOs         ...    0-  45
Transformation of internal/external MOs...    0-  45 to   46- 258
Number Format for Storage              ... Double (8 Byte)
Integral mode                          ... Direct

First Phase: integral generation and transformation of MO indices
  Aux angular momentum 0               ... done (    0.500 sec)
  Aux angular momentum 1               ... done (    0.410 sec)
  Aux angular momentum 2               ... done (    0.513 sec)
  Aux angular momentum 3               ... done (    0.301 sec)
  Aux angular momentum 4               ... done (    0.269 sec)
Closing buffer VIJ ( 0.00 GB; CompressionRatio= 1.95)
Closing buffer VIA ( 0.04 GB; CompressionRatio= 1.00)
  Phase 1 completed in     2.124 sec
Second Phase: sorting and transformation of aux index

IJ-Transformation
Memory available                       ... 990 MB 
Max. # MO pairs treated in a batch     ... 46    
# of internal orbitals                 ... 46
# batches for internal orbitals        ... 1
Closing buffer IJV ( 0.00 GB; CompressionRatio= 1.00)
(ij|v) transformation done in     0.138 sec

IA-Transformation
Memory available                       ... 990 MB 
Max. # MO pairs treated in a batch     ... 46    
# of internal orbitals                 ... 46
# batches for internal orbitals        ... 1
Closing buffer IAV ( 0.04 GB; CompressionRatio= 1.00)
(ia|v) transformation done in     0.597 sec

  Phase 2 completed in     0.763 sec
RI-Integral transformation completed in     2.888 sec
Opening buffers                              ... done

Starting loop over batches of integrals:

Operator 0  - window                       ... (  0- 45)x( 46-258)
Operator 0  - Memory available             ...  1000 MB
Operator 0  - Memory needed per MO         ...   1.6 MB
Operator 0  - Number of orbitals per batch ... 46
Operator 0  - Number of batches            ... 1

OPERATOR  0   PASS   0:  MOs     0 ...   45
  Reading integrals       ... ok
  Internal MO   2
  Internal MO   5
  Internal MO   8
  Internal MO  11
  Internal MO  14
  Internal MO  17
  Internal MO  20
  Internal MO  23
  Internal MO  26
  Internal MO  29
  Internal MO  32
  Internal MO  35
  Internal MO  38
  Internal MO  41
  Internal MO  44
Closing buffer GIPV ( 0.04 GB; CompressionRatio= 1.00)
Time spent in pair loops =    66.324 sec

-----------------------------------------------
 RI-MP2 CORRELATION ENERGY:     -0.575950549 Eh
-----------------------------------------------


---------------------
MP2 DENSITY FORMATION
---------------------

Completing the external part of the density      ... done
Storing the unrelaxed density                    ... done

Calculating the xc-kernel                        ... done
Calculating G(D)                                 ... done
Completing the Lagrangian                        ... done
Solving the Z-vector equations                   ... 

------------------------------------------------------------------------------
                           ORCA CP-SCF CALCULATION
------------------------------------------------------------------------------

Input orbitals are from        ... PbMACl3_mp2_12.orca.gbw
Input Perturbation             ... PbMACl3_mp2_12.orca.pin.tmp
Wavefunction output            ... PbMACl3_mp2_12.orca.pout.tmp
Perturbation mode              ... Real perturbation
Solver                         ... DIIS
   MaxDIIS                     ... 20
   Levelshift                  ...    3.000e-01 Eh
Max. number of iterations      ... 128
Convergence tolerance          ... 1.000e-08
Integral handling              ... Direct
COSX GridX                     ... 1
Number of perturbations        ... 1
Number of operators            ... 1
Orbital ranges used for CP-SCF:
 Operator 0:  Orbitals   0... 45  to  46...258
DFT calculation                         ... on
Exchange functional (SCF)               ... B88
Exchange functional (CP-SCF)            ... B88
   X-Alpha parameter    XAlpha (SCF)    ...  0.666667
   X-Alpha parameter    XAlpha (CP-SCF) ...  0.666667
   Becke's b parameter  XBeta (SCF)     ...  0.004200
   Becke's b parameter  XBeta (CP-SCF)  ...  0.004200
Correlation functional (SCF)            ... LYP
Correlation functional (CP-SCF)         ... LYP
 LDA part of GGA corr.  LDAOpt (SCF)    ... VWN-3
 LDA part of GGA corr.  LDAOpt (CP-SCF) ... VWN-3
Hybrid DFT                              ... on
   Exchange mixing (SCF)                ...  0.530
   Exchange mixing (CP-SCF)             ...  0.530
   GGA exch. scaling(SCF)               ...  0.470
   GGA exch. scaling (CP-SCF)           ...  0.470
   GGA corr. scaling (SCF)              ...  0.730
   GGA corr. scaling (CP-SCF)           ...  0.730
The RIJCOSX approximation is active
Variables per vector in CP-SCF ... 9798
Number of vectors sought       ... 1
Calculating the xc-kernel      ... done

Solving the CP-SCF equations by a DIIS algorithm

-----------------
CP-SCF ITERATIONS
-----------------
  Iteration   0: MaxR=  0.084826762
  Iteration   1: MaxR=  0.037271598
  Iteration   2: MaxR=  0.009989674
  Iteration   3: MaxR=  0.004269965
  Iteration   4: MaxR=  0.002114882
  Iteration   5: MaxR=  0.000805772
  Iteration   6: MaxR=  0.000343112
  Iteration   7: MaxR=  0.000110365
  Iteration   8: MaxR=  0.000048310
  Iteration   9: MaxR=  0.000023019
  Iteration  10: MaxR=  0.000012081
  Iteration  11: MaxR=  0.000005036
  Iteration  12: MaxR=  0.000001846
  Iteration  13: MaxR=  0.000000895
  Iteration  14: MaxR=  0.000000359
  Iteration  15: MaxR=  0.000000158
  Iteration  16: MaxR=  0.000000060
  Iteration  17: MaxR=  0.000000023
  Iteration  18: MaxR=  0.000000009
                              *** THE CP-SCF HAS CONVERGED *** 
done
Finalizing the relaxed density                   ... done
Transforming P to the AO basis                   ... done
Storing the relaxed density                      ... done

------------------------------------
ENERGY WEIGHTED DENSITY FINALIZATION
------------------------------------

Gathering the parts of the W-matrix              ... done
Forming the Z-density                            ... done
Transforming Z to the AO basis                   ... done
Calculating G(Z)                                 ... done
Finalizing the W-matrix                          ... done
Transforming W to the AO basis and storing       ... done
Entering the RIJONX and RIJCOSX sections
Starting the three-index derivative integrals:
Operator 0  - Memory available             ...  1000 MB
Operator 0  - Memory needed per MO         ...   1.0 MB
Operator 0  - Number of orbitals per batch ... 46
Operator 0  - Number of batches            ... 1

OPERATOR  0   PASS   0:  MOs     0 ...   45

----------------------------------
MP2 DERIVATIVE INTEGRAL GENERATION
----------------------------------


Input Correlated Electron Density   ... PbMACl3_mp2_12.orca.pmp2re
Input Energy Weighted Density       ... PbMACl3_mp2_12.orca.wmp2.tmp
Input SCF Electron Density          ... PbMACl3_mp2_12.orca.scfp.tmp

One-Electron Terms    ...
  ECP gradient                                           ... One-Electron Terms done

-----------------------------------------------------------
MP2 COSX Grid Generation
-----------------------------------------------------------

General Integration Accuracy     IntAcc      ...  4.340
Radial Grid Type                 RadialGrid  ... Gauss-Chebyshev
Angular Grid (max. acc.)         AngularGrid ... Lebedev-302
Angular grid pruning method      GridPruning ... 3 (G Style)
Weight generation scheme         WeightScheme... Becke
Basis function cutoff            BFCut       ...    1.0000e-11
Integration weight cutoff        WCut        ...    1.0000e-14
Grids for H and He will be reduced by one unit

# of grid points (after initial pruning)     ...  57718 (   0.0 sec)
# of grid points (after weights+screening)   ...  54479 (   0.2 sec)
nearest neighbour list constructed           ...    0.0 sec
Grid point re-assignment to atoms done       ...    0.0 sec
Grid point division into batches done        ...    0.3 sec
Reduced shell lists constructed in    1.2 sec

Total number of grid points                  ...    54479
Total number of batches                      ...      859
Average number of points per batch           ...       63
Average number of grid points per atom       ...     4540
Average number of shells per batch           ...    55.18 (54.64%)
Average number of basis functions per batch  ...   145.50 (56.18%)
Average number of large shells per batch     ...    41.45 (75.12%)
Average number of large basis fcns per batch ...   106.63 (73.28%)
Maximum spatial batch extension              ...  40.43, 35.78, 36.77 au
Average spatial batch extension              ...   3.09,  3.06,  3.13 au

Overlap Fitting                  UseSFitting ... on
Two electron COSX terms .... 
Integration Timings:
Total Time                  =   117.9 sec
Basis fcn evaluation        =     0.4 sec
Density evaluation          =     1.3 sec
Integral evaluation         =   113.6 sec
K(P) evaluation             =     1.1 sec
                          .... COSX two electron terms done
COSX two-electron contribution to the gradient
     0:    -0.019014    -0.022126    -0.016975
     1:     0.047932     0.036725     0.078247
     2:     0.100734    -0.081853     0.107286
     3:    -0.103490     0.096257     0.087628
     4:     0.093556     0.096843    -0.097723
     5:    -0.097052    -0.080548     0.082462
     6:     0.105582    -0.109659    -0.101323
     7:    -0.125404     0.079514    -0.131326
     8:    -0.059991    -0.082179    -0.032358
     9:     0.043325    -0.006019     0.002731
    10:    -0.016971     0.079392    -0.012756
    11:     0.030728    -0.006068     0.033928
Exchange-correlation gradient    ... done
Dispersion correction            ... 
Entering the calculation of the dispersion correction...

Checking the input atom types...

Done
done

                *********************************************
                * UNRELAXED MP2 DENSITY POPULATION ANALYSIS *
                *********************************************

------------------------------------------------------------------------------
                           ORCA POPULATION ANALYSIS
------------------------------------------------------------------------------
Input electron density              ... PbMACl3_mp2_12.orca.pmp2ur
BaseName (.gbw .S,...)              ... PbMACl3_mp2_12.orca

                    ********************************
                    * MULLIKEN POPULATION ANALYSIS *
                    ********************************

-----------------------
MULLIKEN ATOMIC CHARGES
-----------------------
   0 C :   -0.253799
   1 N :   -0.314399
   2 H :    0.157118
   3 H :    0.146684
   4 H :    0.148124
   5 H :    0.300259
   6 H :    0.289597
   7 H :    0.273834
   8 Pb:    0.943217
   9 Cl:   -0.613735
  10 Cl:   -0.511615
  11 Cl:   -0.565284
Sum of atomic charges:   -0.0000000

--------------------------------
MULLIKEN REDUCED ORBITAL CHARGES
--------------------------------
  0 C s       :     3.266663  s :     3.266663
      pz      :     0.972015  p :     2.901139
      px      :     0.988072
      py      :     0.941051
      dz2     :     0.009675  d :     0.078843
      dxz     :     0.019735
      dyz     :     0.019572
      dx2y2   :     0.009548
      dxy     :     0.020312
      f0      :     0.000517  f :     0.007155
      f+1     :     0.000678
      f-1     :     0.000928
      f+2     :     0.000896
      f-2     :     0.002732
      f+3     :     0.000653
      f-3     :     0.000751
  1 N s       :     3.425092  s :     3.425092
      pz      :     1.278188  p :     3.825277
      px      :     1.285636
      py      :     1.261453
      dz2     :     0.007463  d :     0.060737
      dxz     :     0.014763
      dyz     :     0.014570
      dx2y2   :     0.008668
      dxy     :     0.015273
      f0      :     0.000287  f :     0.003294
      f+1     :     0.000320
      f-1     :     0.000361
      f+2     :     0.000370
      f-2     :     0.001299
      f+3     :     0.000313
      f-3     :     0.000344
  2 H s       :     0.820123  s :     0.820123
      pz      :     0.008566  p :     0.022759
      px      :     0.008049
      py      :     0.006144
  3 H s       :     0.830742  s :     0.830742
      pz      :     0.007243  p :     0.022574
      px      :     0.007624
      py      :     0.007707
  4 H s       :     0.829224  s :     0.829224
      pz      :     0.007162  p :     0.022652
      px      :     0.007700
      py      :     0.007790
  5 H s       :     0.641890  s :     0.641890
      pz      :     0.012351  p :     0.057851
      px      :     0.016504
      py      :     0.028996
  6 H s       :     0.668972  s :     0.668972
      pz      :     0.014477  p :     0.041431
      px      :     0.010166
      py      :     0.016788
  7 H s       :     0.691065  s :     0.691065
      pz      :     0.013604  p :     0.035101
      px      :     0.013497
      py      :     0.008000
  8 Pbs       :     3.935277  s :     3.935277
      pz      :     2.263412  p :     6.965036
      px      :     2.321008
      py      :     2.380616
      dz2     :     2.019281  d :    10.089986
      dxz     :     2.012442
      dyz     :     2.016451
      dx2y2   :     2.022695
      dxy     :     2.019117
      f0      :     0.009240  f :     0.066483
      f+1     :     0.010296
      f-1     :     0.009109
      f+2     :     0.009154
      f-2     :     0.006021
      f+3     :     0.011495
      f-3     :     0.011168
  9 Cls       :     5.964146  s :     5.964146
      pz      :     3.942116  p :    11.600646
      px      :     3.739632
      py      :     3.918898
      dz2     :     0.009271  d :     0.046081
      dxz     :     0.008627
      dyz     :     0.009088
      dx2y2   :     0.010703
      dxy     :     0.008392
      f0      :     0.000405  f :     0.002862
      f+1     :     0.000441
      f-1     :     0.000400
      f+2     :     0.000421
      f-2     :     0.000382
      f+3     :     0.000425
      f-3     :     0.000388
 10 Cls       :     5.956835  s :     5.956835
      pz      :     3.912535  p :    11.498947
      px      :     3.905752
      py      :     3.680660
      dz2     :     0.009883  d :     0.052558
      dxz     :     0.008160
      dyz     :     0.010144
      dx2y2   :     0.014082
      dxy     :     0.010288
      f0      :     0.000430  f :     0.003274
      f+1     :     0.000381
      f-1     :     0.000513
      f+2     :     0.000461
      f-2     :     0.000389
      f+3     :     0.000511
      f-3     :     0.000588
 11 Cls       :     5.955540  s :     5.955540
      pz      :     3.803294  p :    11.548856
      px      :     3.889517
      py      :     3.856045
      dz2     :     0.012445  d :     0.057148
      dxz     :     0.011734
      dyz     :     0.009704
      dx2y2   :     0.012614
      dxy     :     0.010651
      f0      :     0.000473  f :     0.003740
      f+1     :     0.000549
      f-1     :     0.000551
      f+2     :     0.000485
      f-2     :     0.000466
      f+3     :     0.000644
      f-3     :     0.000572


                     *******************************
                     * LOEWDIN POPULATION ANALYSIS *
                     *******************************

----------------------
LOEWDIN ATOMIC CHARGES
----------------------
   0 C :   -0.288654
   1 N :    0.065144
   2 H :    0.125699
   3 H :    0.121018
   4 H :    0.120686
   5 H :    0.089517
   6 H :    0.157100
   7 H :    0.180770
   8 Pb:    0.442368
   9 Cl:   -0.465890
  10 Cl:   -0.253418
  11 Cl:   -0.294340

-------------------------------
LOEWDIN REDUCED ORBITAL CHARGES
-------------------------------
  0 C s       :     2.853201  s :     2.853201
      pz      :     1.031418  p :     3.080662
      px      :     1.041828
      py      :     1.007415
      dz2     :     0.033835  d :     0.315925
      dxz     :     0.079428
      dyz     :     0.083456
      dx2y2   :     0.032652
      dxy     :     0.086554
      f0      :     0.005634  f :     0.038867
      f+1     :     0.004293
      f-1     :     0.006134
      f+2     :     0.004454
      f-2     :     0.007349
      f+3     :     0.005104
      f-3     :     0.005899
  1 N s       :     3.005825  s :     3.005825
      pz      :     1.244707  p :     3.746625
      px      :     1.245250
      py      :     1.256668
      dz2     :     0.018812  d :     0.171405
      dxz     :     0.043518
      dyz     :     0.043204
      dx2y2   :     0.021869
      dxy     :     0.044002
      f0      :     0.001637  f :     0.011002
      f+1     :     0.001275
      f-1     :     0.001613
      f+2     :     0.001178
      f-2     :     0.002171
      f+3     :     0.001388
      f-3     :     0.001739
  2 H s       :     0.810366  s :     0.810366
      pz      :     0.023379  p :     0.063936
      px      :     0.022087
      py      :     0.018470
  3 H s       :     0.815418  s :     0.815418
      pz      :     0.019918  p :     0.063564
      px      :     0.022781
      py      :     0.020865
  4 H s       :     0.815503  s :     0.815503
      pz      :     0.021383  p :     0.063811
      px      :     0.021259
      py      :     0.021169
  5 H s       :     0.715767  s :     0.715767
      pz      :     0.041213  p :     0.194716
      px      :     0.052419
      py      :     0.101084
  6 H s       :     0.718586  s :     0.718586
      pz      :     0.041800  p :     0.124314
      px      :     0.034246
      py      :     0.048268
  7 H s       :     0.714280  s :     0.714280
      pz      :     0.039716  p :     0.104949
      px      :     0.038189
      py      :     0.027044
  8 Pbs       :     3.857219  s :     3.857219
      pz      :     2.340422  p :     7.246751
      px      :     2.400654
      py      :     2.505675
      dz2     :     2.083912  d :    10.342355
      dxz     :     2.046353
      dyz     :     2.047271
      dx2y2   :     2.113472
      dxy     :     2.051346
      f0      :     0.014024  f :     0.111307
      f+1     :     0.018097
      f-1     :     0.016293
      f+2     :     0.014199
      f-2     :     0.007079
      f+3     :     0.019904
      f-3     :     0.021712
  9 Cls       :     5.879158  s :     5.879158
      pz      :     3.922846  p :    11.534108
      px      :     3.715520
      py      :     3.895741
      dz2     :     0.009904  d :     0.049577
      dxz     :     0.009265
      dyz     :     0.010124
      dx2y2   :     0.011935
      dxy     :     0.008349
      f0      :     0.000420  f :     0.003047
      f+1     :     0.000483
      f-1     :     0.000422
      f+2     :     0.000483
      f-2     :     0.000389
      f+3     :     0.000444
      f-3     :     0.000405
 10 Cls       :     5.792015  s :     5.792015
      pz      :     3.872388  p :    11.397597
      px      :     3.865484
      py      :     3.659726
      dz2     :     0.011790  d :     0.060064
      dxz     :     0.008239
      dyz     :     0.009855
      dx2y2   :     0.019994
      dxy     :     0.010187
      f0      :     0.000430  f :     0.003742
      f+1     :     0.000384
      f-1     :     0.000675
      f+2     :     0.000474
      f-2     :     0.000390
      f+3     :     0.000534
      f-3     :     0.000855
 11 Cls       :     5.802720  s :     5.802720
      pz      :     3.779656  p :    11.415658
      px      :     3.853286
      py      :     3.782716
      dz2     :     0.015981  d :     0.070955
      dxz     :     0.013479
      dyz     :     0.010750
      dx2y2   :     0.017176
      dxy     :     0.013569
      f0      :     0.000566  f :     0.005007
      f+1     :     0.000665
      f-1     :     0.000852
      f+2     :     0.000574
      f-2     :     0.000522
      f+3     :     0.001009
      f-3     :     0.000818


                      *****************************
                      * MAYER POPULATION ANALYSIS *
                      *****************************

  NA   - Mulliken gross atomic population
  ZA   - Total nuclear charge
  QA   - Mulliken gross atomic charge
  VA   - Mayer's total valence
  BVA  - Mayer's bonded valence
  FA   - Mayer's free valence

  ATOM       NA         ZA         QA         VA         BVA        FA
  0 C      6.2538     6.0000    -0.2538     3.9026     3.7872     0.1153
  1 N      7.3144     7.0000    -0.3144     3.3581     3.2131     0.1450
  2 H      0.8429     1.0000     0.1571     0.9676     0.9490     0.0186
  3 H      0.8533     1.0000     0.1467     0.9653     0.9466     0.0187
  4 H      0.8519     1.0000     0.1481     0.9647     0.9460     0.0188
  5 H      0.6997     1.0000     0.3003     0.9890     0.9685     0.0205
  6 H      0.7104     1.0000     0.2896     0.9833     0.9628     0.0205
  7 H      0.7262     1.0000     0.2738     0.9566     0.9359     0.0207
  8 Pb    21.0568    22.0000     0.9432     2.0686     1.7025     0.3661
  9 Cl    17.6137    17.0000    -0.6137     0.9028     0.6337     0.2691
 10 Cl    17.5116    17.0000    -0.5116     1.0649     0.7995     0.2654
 11 Cl    17.5653    17.0000    -0.5653     0.9829     0.7173     0.2657

  Mayer bond orders larger than 0.1
B(  0-C ,  1-N ) :   0.8926 B(  0-C ,  2-H ) :   0.9549 B(  0-C ,  3-H ) :   0.9568 
B(  0-C ,  4-H ) :   0.9570 B(  1-N ,  5-H ) :   0.7213 B(  1-N ,  6-H ) :   0.8050 
B(  1-N ,  7-H ) :   0.8624 B(  5-H , 11-Cl) :   0.2539 B(  6-H ,  9-Cl) :   0.1645 
B(  8-Pb,  9-Cl) :   0.4851 B(  8-Pb, 10-Cl) :   0.7312 B(  8-Pb, 11-Cl) :   0.4809 



                *******************************************
                * RELAXED MP2 DENSITY POPULATION ANALYSIS *
                *******************************************

------------------------------------------------------------------------------
                           ORCA POPULATION ANALYSIS
------------------------------------------------------------------------------
Input electron density              ... PbMACl3_mp2_12.orca.pmp2re
BaseName (.gbw .S,...)              ... PbMACl3_mp2_12.orca

                    ********************************
                    * MULLIKEN POPULATION ANALYSIS *
                    ********************************

-----------------------
MULLIKEN ATOMIC CHARGES
-----------------------
   0 C :   -0.272610
   1 N :   -0.310861
   2 H :    0.161002
   3 H :    0.151471
   4 H :    0.152575
   5 H :    0.292390
   6 H :    0.282623
   7 H :    0.270366
   8 Pb:    0.880642
   9 Cl:   -0.582755
  10 Cl:   -0.486170
  11 Cl:   -0.538674
Sum of atomic charges:   -0.0000000

--------------------------------
MULLIKEN REDUCED ORBITAL CHARGES
--------------------------------
  0 C s       :     3.270516  s :     3.270516
      pz      :     0.978295  p :     2.920515
      px      :     0.994510
      py      :     0.947711
      dz2     :     0.009896  d :     0.074584
      dxz     :     0.018172
      dyz     :     0.018028
      dx2y2   :     0.009727
      dxy     :     0.018760
      f0      :     0.000499  f :     0.006995
      f+1     :     0.000669
      f-1     :     0.000912
      f+2     :     0.000890
      f-2     :     0.002651
      f+3     :     0.000639
      f-3     :     0.000735
  1 N s       :     3.426207  s :     3.426207
      pz      :     1.277387  p :     3.822009
      px      :     1.284004
      py      :     1.260618
      dz2     :     0.007630  d :     0.059405
      dxz     :     0.014100
      dyz     :     0.014025
      dx2y2   :     0.008851
      dxy     :     0.014798
      f0      :     0.000284  f :     0.003240
      f+1     :     0.000319
      f-1     :     0.000361
      f+2     :     0.000370
      f-2     :     0.001253
      f+3     :     0.000310
      f-3     :     0.000343
  2 H s       :     0.816610  s :     0.816610
      pz      :     0.008395  p :     0.022388
      px      :     0.007906
      py      :     0.006086
  3 H s       :     0.826306  s :     0.826306
      pz      :     0.007152  p :     0.022222
      px      :     0.007484
      py      :     0.007585
  4 H s       :     0.825122  s :     0.825122
      pz      :     0.007047  p :     0.022303
      px      :     0.007586
      py      :     0.007670
  5 H s       :     0.650360  s :     0.650360
      pz      :     0.012275  p :     0.057249
      px      :     0.016345
      py      :     0.028629
  6 H s       :     0.676413  s :     0.676413
      pz      :     0.014316  p :     0.040964
      px      :     0.010067
      py      :     0.016581
  7 H s       :     0.694927  s :     0.694927
      pz      :     0.013410  p :     0.034707
      px      :     0.013302
      py      :     0.007995
  8 Pbs       :     3.943534  s :     3.943534
      pz      :     2.288092  p :     7.025426
      px      :     2.347415
      py      :     2.389919
      dz2     :     2.017187  d :    10.085173
      dxz     :     2.012091
      dyz     :     2.016888
      dx2y2   :     2.019512
      dxy     :     2.019495
      f0      :     0.009104  f :     0.065224
      f+1     :     0.009971
      f-1     :     0.008927
      f+2     :     0.009073
      f-2     :     0.006006
      f+3     :     0.011244
      f-3     :     0.010900
  9 Cls       :     5.965399  s :     5.965399
      pz      :     3.936702  p :    11.568385
      px      :     3.719779
      py      :     3.911904
      dz2     :     0.009239  d :     0.046095
      dxz     :     0.008728
      dyz     :     0.009182
      dx2y2   :     0.010553
      dxy     :     0.008393
      f0      :     0.000407  f :     0.002877
      f+1     :     0.000443
      f-1     :     0.000401
      f+2     :     0.000425
      f-2     :     0.000383
      f+3     :     0.000427
      f-3     :     0.000390
 10 Cls       :     5.957952  s :     5.957952
      pz      :     3.904287  p :    11.472785
      px      :     3.897128
      py      :     3.671370
      dz2     :     0.009796  d :     0.052150
      dxz     :     0.008182
      dyz     :     0.010103
      dx2y2   :     0.013814
      dxy     :     0.010254
      f0      :     0.000432  f :     0.003283
      f+1     :     0.000381
      f-1     :     0.000513
      f+2     :     0.000464
      f-2     :     0.000390
      f+3     :     0.000515
      f-3     :     0.000588
 11 Cls       :     5.956493  s :     5.956493
      pz      :     3.793593  p :    11.520767
      px      :     3.881883
      py      :     3.845291
      dz2     :     0.012539  d :     0.057648
      dxz     :     0.011660
      dyz     :     0.009804
      dx2y2   :     0.012837
      dxy     :     0.010808
      f0      :     0.000476  f :     0.003765
      f+1     :     0.000551
      f-1     :     0.000556
      f+2     :     0.000487
      f-2     :     0.000468
      f+3     :     0.000649
      f-3     :     0.000577


                     *******************************
                     * LOEWDIN POPULATION ANALYSIS *
                     *******************************

----------------------
LOEWDIN ATOMIC CHARGES
----------------------
   0 C :   -0.298155
   1 N :    0.061279
   2 H :    0.127768
   3 H :    0.123384
   4 H :    0.122916
   5 H :    0.087712
   6 H :    0.155216
   7 H :    0.180510
   8 Pb:    0.395953
   9 Cl:   -0.442251
  10 Cl:   -0.236868
  11 Cl:   -0.277463

-------------------------------
LOEWDIN REDUCED ORBITAL CHARGES
-------------------------------
  0 C s       :     2.854511  s :     2.854511
      pz      :     1.035695  p :     3.093646
      px      :     1.046151
      py      :     1.011799
      dz2     :     0.034071  d :     0.311362
      dxz     :     0.077669
      dyz     :     0.081767
      dx2y2   :     0.032811
      dxy     :     0.085043
      f0      :     0.005630  f :     0.038636
      f+1     :     0.004263
      f-1     :     0.006101
      f+2     :     0.004426
      f-2     :     0.007257
      f+3     :     0.005081
      f-3     :     0.005879
  1 N s       :     3.007821  s :     3.007821
      pz      :     1.245667  p :     3.748275
      px      :     1.246221
      py      :     1.256388
      dz2     :     0.019078  d :     0.171544
      dxz     :     0.043213
      dyz     :     0.043130
      dx2y2   :     0.022155
      dxy     :     0.043969
      f0      :     0.001658  f :     0.011081
      f+1     :     0.001280
      f-1     :     0.001622
      f+2     :     0.001179
      f-2     :     0.002191
      f+3     :     0.001401
      f-3     :     0.001750
  2 H s       :     0.808216  s :     0.808216
      pz      :     0.023373  p :     0.064016
      px      :     0.022096
      py      :     0.018547
  3 H s       :     0.812913  s :     0.812913
      pz      :     0.019984  p :     0.063703
      px      :     0.022804
      py      :     0.020915
  4 H s       :     0.813122  s :     0.813122
      pz      :     0.021419  p :     0.063962
      px      :     0.021312
      py      :     0.021231
  5 H s       :     0.718297  s :     0.718297
      pz      :     0.041171  p :     0.193991
      px      :     0.052305
      py      :     0.100515
  6 H s       :     0.720636  s :     0.720636
      pz      :     0.041753  p :     0.124148
      px      :     0.034206
      py      :     0.048189
  7 H s       :     0.714624  s :     0.714624
      pz      :     0.039653  p :     0.104866
      px      :     0.038109
      py      :     0.027104
  8 Pbs       :     3.865352  s :     3.865352
      pz      :     2.361915  p :     7.295593
      px      :     2.422761
      py      :     2.510917
      dz2     :     2.080783  d :    10.333640
      dxz     :     2.045484
      dyz     :     2.047104
      dx2y2   :     2.109130
      dxy     :     2.051139
      f0      :     0.013826  f :     0.109462
      f+1     :     0.017572
      f-1     :     0.016050
      f+2     :     0.014067
      f-2     :     0.007044
      f+3     :     0.019537
      f-3     :     0.021367
  9 Cls       :     5.881660  s :     5.881660
      pz      :     3.918631  p :    11.507782
      px      :     3.698502
      py      :     3.890649
      dz2     :     0.009891  d :     0.049745
      dxz     :     0.009342
      dyz     :     0.010242
      dx2y2   :     0.011911
      dxy     :     0.008358
      f0      :     0.000423  f :     0.003065
      f+1     :     0.000485
      f-1     :     0.000423
      f+2     :     0.000488
      f-2     :     0.000390
      f+3     :     0.000448
      f-3     :     0.000408
 10 Cls       :     5.795076  s :     5.795076
      pz      :     3.865518  p :    11.377626
      px      :     3.858828
      py      :     3.653280
      dz2     :     0.011829  d :     0.060376
      dxz     :     0.008272
      dyz     :     0.009915
      dx2y2   :     0.020086
      dxy     :     0.010274
      f0      :     0.000434  f :     0.003790
      f+1     :     0.000385
      f-1     :     0.000684
      f+2     :     0.000481
      f-2     :     0.000391
      f+3     :     0.000544
      f-3     :     0.000870
 11 Cls       :     5.805841  s :     5.805841
      pz      :     3.772367  p :    11.394898
      px      :     3.846949
      py      :     3.775583
      dz2     :     0.016197  d :     0.071686
      dxz     :     0.013451
      dyz     :     0.010855
      dx2y2   :     0.017485
      dxy     :     0.013697
      f0      :     0.000570  f :     0.005037
      f+1     :     0.000670
      f-1     :     0.000859
      f+2     :     0.000577
      f-2     :     0.000525
      f+3     :     0.001011
      f-3     :     0.000826


                      *****************************
                      * MAYER POPULATION ANALYSIS *
                      *****************************

  NA   - Mulliken gross atomic population
  ZA   - Total nuclear charge
  QA   - Mulliken gross atomic charge
  VA   - Mayer's total valence
  BVA  - Mayer's bonded valence
  FA   - Mayer's free valence

  ATOM       NA         ZA         QA         VA         BVA        FA
  0 C      6.2726     6.0000    -0.2726     3.9027     3.7876     0.1150
  1 N      7.3109     7.0000    -0.3109     3.3660     3.2214     0.1446
  2 H      0.8390     1.0000     0.1610     0.9667     0.9482     0.0185
  3 H      0.8485     1.0000     0.1515     0.9641     0.9455     0.0186
  4 H      0.8474     1.0000     0.1526     0.9635     0.9448     0.0187
  5 H      0.7076     1.0000     0.2924     0.9952     0.9749     0.0204
  6 H      0.7174     1.0000     0.2826     0.9900     0.9696     0.0204
  7 H      0.7296     1.0000     0.2704     0.9612     0.9406     0.0206
  8 Pb    21.1194    22.0000     0.8806     2.1588     1.7985     0.3604
  9 Cl    17.5828    17.0000    -0.5828     0.9546     0.6879     0.2667
 10 Cl    17.4862    17.0000    -0.4862     1.1090     0.8454     0.2636
 11 Cl    17.5387    17.0000    -0.5387     1.0306     0.7666     0.2640

  Mayer bond orders larger than 0.1
B(  0-C ,  1-N ) :   0.8992 B(  0-C ,  2-H ) :   0.9521 B(  0-C ,  3-H ) :   0.9540 
B(  0-C ,  4-H ) :   0.9541 B(  1-N ,  5-H ) :   0.7176 B(  1-N ,  6-H ) :   0.8020 
B(  1-N ,  7-H ) :   0.8593 B(  5-H , 11-Cl) :   0.2636 B(  6-H ,  9-Cl) :   0.1741 
B(  8-Pb,  9-Cl) :   0.5203 B(  8-Pb, 10-Cl) :   0.7650 B(  8-Pb, 11-Cl) :   0.5057 



-------
TIMINGS
-------

Total time                :  633.506 sec
Integral trafo            :    2.901 sec (  0.5%)
I/O of integrals          :    0.128 sec (  0.0%)
K(i,j) Operators          :   10.537 sec (  1.7%)
T(i,j) pair energies      :    1.564 sec (  0.2%)
V-calculation             :    0.015 sec (  0.0%)
V**(-1/2)                 :    0.062 sec (  0.0%)
Gamma(ia|P)               :   10.180 sec (  1.6%)
Gamma-Trafo               :    1.387 sec (  0.2%)
D(virtual)                :    4.459 sec (  0.7%)
D(internal)               :    4.882 sec (  0.8%)
W(virtual)                :    8.932 sec (  1.4%)
W(internal)               :   16.716 sec (  2.6%)
L(virtual)                :    6.730 sec (  1.1%)
L(internal)               :    0.308 sec (  0.0%)
G(D)                      :   16.929 sec (  2.7%)
G(Z)                      :   17.061 sec (  2.7%)
Z-Vector Solution         :  387.865 sec ( 61.2%)
Z-Vector Solution         :  387.865 sec ( 61.2%)
3-Index Derivative 
+ Separable RIJ part      :    6.376 sec (  1.0%)
2-Index Derivative 
+ Separable RIJ part      :    0.043 sec (  0.0%)
Separable Gradient (COSX) :  133.387 sec ( 21.1%)


---------------------------------------
MP2 TOTAL ENERGY:    -1669.574723551 Eh
---------------------------------------

The final MP2 gradient
  0:   0.00142819  -0.00103986   0.00510686
  1:  -0.00238949  -0.03310412   0.02202978
  2:   0.00328898  -0.00111093   0.00336487
  3:  -0.00301201   0.00234182   0.00201707
  4:   0.00141303   0.00177957  -0.00373733
  5:  -0.00632476   0.00072706  -0.00095520
  6:   0.00257426   0.00114643  -0.00338037
  7:  -0.01051109   0.00014535  -0.00937979
  8:  -0.04170942  -0.02236969  -0.01952827
  9:   0.02391674  -0.00150695   0.00855991
 10:  -0.00537488   0.02012864  -0.00486220
 11:   0.03666918   0.03319413   0.00059486

-----------------------------------
NORM OF THE MP2 GRADIENT:  0.090056
-----------------------------------

Entering the calculation of the dispersion correction...

Checking the input atom types...

Done


-------------------------------------------------------------------------------
                          DFT DISPERSION CORRECTION                            
                                                                               
                                DFTD3 V2.1  Rev 6                               
                          USING Becke-Johnson damping                          
-------------------------------------------------------------------------------
The B2PLYP functional is recognized
Active option DFTDOPT                   ...         4   

molecular C6(AA) [au] = 4934.013430 


            DFT-D V3
 parameters
 s6 scaling factor         :     0.6400 
 a1 scaling factor         :     0.3065 
 s8 scaling factor         :     0.9147 
 a2 scaling factor         :     5.0570 
 ad hoc parameters k1-k3   :    16.0000     1.3333    -4.0000 

 Edisp/kcal,au: -8.220511551996  -0.013100217630 
 E6   /kcal   :  -3.791675108 
 E8   /kcal   :  -4.428836444 
 % E8         :  53.875436044 

-------------------------   ----------------
Dispersion correction           -0.013100218
-------------------------   ----------------


-------------------------   --------------------
FINAL SINGLE POINT ENERGY     -1669.587823769050
-------------------------   --------------------


                            ***************************************
                            *     ORCA property calculations      *
                            ***************************************


  WARNING: The energy has been calculated at the MP2 level but the densities
           used in the property calculations are still SCF densities
           MP2 response densities have not been calculated 
           use %mp2 Density relaxed end
           or  %mp2 Density unrelaxed end

                                    ---------------------
                                    Active property flags
                                    ---------------------
   (+) Dipole Moment


------------------------------------------------------------------------------
                       ORCA ELECTRIC PROPERTIES CALCULATION
------------------------------------------------------------------------------

Dipole Moment Calculation                       ... on
Quadrupole Moment Calculation                   ... off
Polarizability Calculation                      ... off
GBWName                                         ... PbMACl3_mp2_12.orca.gbw
Electron density file                           ... PbMACl3_mp2_12.orca.scfp.tmp

-------------
DIPOLE MOMENT
-------------
                                X             Y             Z
Electronic contribution:   -114.28326     -99.11555     -75.16584
Nuclear contribution   :    113.23345      99.85676      75.48845
                        -----------------------------------------
Total Dipole Moment    :     -1.04981       0.74121       0.32261
                        -----------------------------------------
Magnitude (a.u.)       :      1.32498
Magnitude (Debye)      :      3.36783


                         *** MP2 UNRELAXED DENSITY ***

------------------------------------------------------------------------------
                       ORCA ELECTRIC PROPERTIES CALCULATION
------------------------------------------------------------------------------

Dipole Moment Calculation                       ... on
Quadrupole Moment Calculation                   ... off
Polarizability Calculation                      ... off
GBWName                                         ... PbMACl3_mp2_12.orca.gbw
Electron density file                           ... PbMACl3_mp2_12.orca.pmp2ur

-------------
DIPOLE MOMENT
-------------
                                X             Y             Z
Electronic contribution:   -114.24510     -99.09519     -75.15267
Nuclear contribution   :    113.23345      99.85676      75.48845
                        -----------------------------------------
Total Dipole Moment    :     -1.01165       0.76157       0.33578
                        -----------------------------------------
Magnitude (a.u.)       :      1.31002
Magnitude (Debye)      :      3.32981


                           *** MP2 RELAXED DENSITY ***

------------------------------------------------------------------------------
                       ORCA ELECTRIC PROPERTIES CALCULATION
------------------------------------------------------------------------------

Dipole Moment Calculation                       ... on
Quadrupole Moment Calculation                   ... off
Polarizability Calculation                      ... off
GBWName                                         ... PbMACl3_mp2_12.orca.gbw
Electron density file                           ... PbMACl3_mp2_12.orca.pmp2re

-------------
DIPOLE MOMENT
-------------
                                X             Y             Z
Electronic contribution:   -114.15711     -99.08622     -75.13793
Nuclear contribution   :    113.23345      99.85676      75.48845
                        -----------------------------------------
Total Dipole Moment    :     -0.92366       0.77054       0.35052
                        -----------------------------------------
Magnitude (a.u.)       :      1.25290
Magnitude (Debye)      :      3.18461


Timings for individual modules:

Sum of individual times         ...      882.685 sec (=  14.711 min)
GTO integral calculation        ...        1.075 sec (=   0.018 min)   0.1 %
SCF iterations                  ...      247.455 sec (=   4.124 min)  28.0 %
MP2 module                      ...      634.155 sec (=  10.569 min)  71.8 %
                             ****ORCA TERMINATED NORMALLY****
TOTAL RUN TIME: 0 days 0 hours 14 minutes 44 seconds 693 msec
