
                                 *****************
                                 * O   R   C   A *
                                 *****************

           --- An Ab Initio, DFT and Semiempirical electronic structure package ---

                  #######################################################
                  #                        -***-                        #
                  #  Department of molecular theory and spectroscopy    #
                  #              Directorship: Frank Neese              #
                  # Max Planck Institute for Chemical Energy Conversion #
                  #                  D-45470 Muelheim/Ruhr              #
                  #                       Germany                       #
                  #                                                     #
                  #                  All rights reserved                #
                  #                        -***-                        #
                  #######################################################


                         Program Version 3.0.3 - RELEASE   -


 With contributions from (in alphabetic order):
   Ute Becker             : Parallelization
   Dmytro Bykov           : SCF Hessian
   Dmitry Ganyushin       : Spin-Orbit,Spin-Spin,Magnetic field MRCI
   Andreas Hansen         : Spin unrestricted coupled pair/coupled cluster methods
   Dimitrios Liakos       : Extrapolation schemes; parallel MDCI
   Robert Izsak           : Overlap fitted RIJCOSX, COSX-SCS-MP3
   Christian Kollmar      : KDIIS, OOCD, Brueckner-CCSD(T), CCSD density
   Simone Kossmann        : Meta GGA functionals, TD-DFT gradient, OOMP2, MP2 Hessian
   Taras Petrenko         : DFT Hessian,TD-DFT gradient, ASA and ECA modules, normal mode analysis, Resonance Raman, ABS, FL, XAS/XES, NRVS
   Christoph Reimann      : Effective Core Potentials
   Michael Roemelt        : Restricted open shell CIS
   Christoph Riplinger    : Improved optimizer, TS searches, QM/MM, DLPNO-CCSD
   Barbara Sandhoefer     : DKH picture change effects
   Igor Schapiro          : Molecular dynamics
   Kantharuban Sivalingam : CASSCF convergence, NEVPT2
   Boris Wezisla          : Elementary symmetry handling
   Frank Wennmohs         : Technical directorship


 We gratefully acknowledge several colleagues who have allowed us to
 interface, adapt or use parts of their codes:
   Stefan Grimme, W. Hujo, H. Kruse, T. Risthaus : VdW corrections, initial TS optimization,
                                                   DFT functionals, gCP
   Ed Valeev                                     : LibInt (2-el integral package), F12 methods
   Garnet Chan, S. Sharma, R. Olivares           : DMRG
   Ulf Ekstrom                                   : XCFun DFT Library
   Mihaly Kallay                                 : mrcc  (arbitrary order and MRCC methods)
   Andreas Klamt, Michael Diedenhofen            : otool_cosmo (COSMO solvation model)
   Frank Weinhold                                : gennbo (NPA and NBO analysis)
   Christopher J. Cramer and Donald G. Truhlar   : smd solvation model


 Your calculation uses the libint2 library for the computation of 2-el integrals
 For citations please refer to: http://libint.valeyev.net

 This ORCA versions uses:
   CBLAS   interface :  Fast vector & matrix operations
   LAPACKE interface :  Fast linear algebra routines
   SCALAPACK package :  Parallel linear algebra routines


Your calculation utilizes the basis: Ahlrichs-TZV
Cite in your paper:
H - Kr: A. Schaefer, H. Horn and R. Ahlrichs, J. Chem. Phys. 97, 2571 (1992).

The def2-TZV basis will be loaded
Cite in your paper:
 	F. Weigend, R. Ahlrichs, Phys. Chem. Chem. Phys. 2005, 7, 3297.

Your calculation utilizes the atom-pairwise dispersion correction
with the Becke-Johnson damping scheme (D3BJ)
Cite in your paper:
S.Grimme, S.Ehrlich, L.Goerigk, J Comput Chem, (2011), 32, 1456–1465 
S.Grimme, J.Antony, S.Ehrlich and H.Krieg, J.Chem.Phys., 132, (2010), 154104 
   

================================================================================
                                        WARNINGS
                       Please study these warnings very carefully!
================================================================================

WARNING: The RI method has been chosen with no auxiliary basis (AUX or GTOAUX in BASIS block)
        Standard TZV/J expansion basis used (GTOAUX=TZV_J)

Now building the actual basis set
cite the ECPs for Pb [SD(60,MDF)] as follows:
  B. Metz, H. Stoll, M. Dolg, J. Chem. Phys. 113, 2563 (2000).

ECP parameters for Pb [SD(60,MDF)] have been obtained from:
  pseudopotential library of the Stuttgart/Cologne group
  http://www.theochem.uni-stuttgart.de/pseudopotentials/

cite the ECP basis sets for Pb [DEF2-TZVP] as follows:
  F. Weigend, R. Ahlrichs; Phys. Chem. Chem. Phys. 7, 3297(2005).

ECP basis sets for Pb [DEF2-TZVP] have been obtained from:
  Turbomole basis set library
  ftp://ftp.chemie.uni-karlsruhe.de/pub/basen/



INFO   : the flag for use of LIBINT has been found!

================================================================================
                                       INPUT FILE
================================================================================
NAME = PbMACl3_mp2_md2_18.orca
|  1> ! RIJCOSX RI-B2PLYP D3BJ def2-TZVP ECP{def2-TZVP} TIGHTSCF Grid5 FinalGrid6 SlowConv MORead
|  2> %method
|  3>  RunTyp Gradient
|  4>  end
|  5> %maxcore 1000
|  6> %moinp "previous.gbw"
|  7> *xyz 0 1
|  8> C -0.394281 0.276013 -0.426662 
|  9> N -1.165380 -0.685592 -1.253010 
| 10> H 0.248796 -0.278576 0.260517 
| 11> H -1.090820 0.897444 0.140826 
| 12> H 0.215705 0.904875 -1.079130 
| 13> H -1.783150 -1.324970 -0.698370 
| 14> H -0.582260 -1.326300 -1.835140 
| 15> H -1.813140 -0.240924 -1.938260 
| 16> Pb -2.770740 -2.526570 -3.011810 
| 17> Cl -0.286635 -2.630630 -3.323440 
| 18> Cl -3.354400 -0.084863 -3.201480 
| 19> Cl -3.188890 -3.029710 -0.617879 
| 20> *
| 21> 
| 22>                          ****END OF INPUT****
================================================================================

                     *******************************
                     * Energy+Gradient Calculation *
                     *******************************

---------------------------------
CARTESIAN COORDINATES (ANGSTROEM)
---------------------------------
  C     -0.394281    0.276013   -0.426662
  N     -1.165380   -0.685592   -1.253010
  H      0.248796   -0.278576    0.260517
  H     -1.090820    0.897444    0.140826
  H      0.215705    0.904875   -1.079130
  H     -1.783150   -1.324970   -0.698370
  H     -0.582260   -1.326300   -1.835140
  H     -1.813140   -0.240924   -1.938260
  Pb    -2.770740   -2.526570   -3.011810
  Cl    -0.286635   -2.630630   -3.323440
  Cl    -3.354400   -0.084863   -3.201480
  Cl    -3.188890   -3.029710   -0.617879

----------------------------
CARTESIAN COORDINATES (A.U.)
----------------------------
  NO LB      ZA    FRAG    MASS        X           Y           Z
   0 C     6.0000    0    12.011         -0.745083109808605          0.521588979402006         -0.806274331751109
   1 N     7.0000    0    14.007         -2.202249041949148         -1.295581119607339         -2.367845743064668
   2 H     1.0000    0     1.008          0.470156303215072         -0.526432347483247          0.492305783230763
   3 H     1.0000    0     1.008         -2.061351061403979          1.695923380530824          0.266122572535594
   4 H     1.0000    0     1.008          0.407623375717484          1.709965935431992         -2.039260162898440
   5 H     1.0000    0     1.008         -3.369665155701680         -2.503830435661641         -1.319728040146585
   6 H     1.0000    0     1.008         -1.100311938736988         -2.506343771419756         -3.467912017404246
   7 H     1.0000    0     1.008         -3.426338042457978         -0.455280379088844         -3.662780576334205
   8 Pb   22.0000*   0   207.200  -5.235939788300969  -4.774525358181417  -5.691496067405365
   9 Cl   17.0000    0    35.453         -0.541661650396518         -4.971170259677263         -6.280391422519245
  10 Cl   17.0000    0    35.453         -6.338897343625447         -0.160367828902959         -6.049920423226209
  11 Cl   17.0000    0    35.453         -6.026128771200140         -5.725322165202556         -1.167622093901129
* core charge reduced due to ECP

--------------------------------
INTERNAL COORDINATES (ANGSTROEM)
--------------------------------
 C      0   0   0   0.000000     0.000     0.000
 N      1   0   0   1.483957     0.000     0.000
 H      1   2   0   1.092397   109.099     0.000
 H      1   2   3   1.092422   109.061   240.173
 H      1   2   3   1.092367   109.305   120.114
 H      2   1   3   1.047888   114.015    60.210
 H      2   1   3   1.043749   114.711   299.789
 H      2   1   3   1.042540   114.361   179.708
 Pb     8   2   1   2.700682    96.927   179.421
 Cl     7   2   1   2.000927   153.836   196.225
 Cl     8   2   1   1.998890   158.088   200.077
 Cl     6   2   1   2.211046   149.828   184.179

---------------------------
INTERNAL COORDINATES (A.U.)
---------------------------
 C      0   0   0   0.000000     0.000     0.000
 N      1   0   0   2.804273     0.000     0.000
 H      1   2   0   2.064332   109.099     0.000
 H      1   2   3   2.064378   109.061   240.173
 H      1   2   3   2.064274   109.305   120.114
 H      2   1   3   1.980222   114.015    60.210
 H      2   1   3   1.972399   114.711   299.789
 H      2   1   3   1.970116   114.361   179.708
 Pb     8   2   1   5.103550    96.927   179.421
 Cl     7   2   1   3.781204   153.836   196.225
 Cl     8   2   1   3.777355   158.088   200.077
 Cl     6   2   1   4.178270   149.828   184.179

---------------------
BASIS SET INFORMATION
---------------------
There are 5 groups of distinct atoms

 Group   1 Type C   : 11s6p2d1f contracted to 5s3p2d1f pattern {62111/411/11/1}
 Group   2 Type N   : 11s6p2d1f contracted to 5s3p2d1f pattern {62111/411/11/1}
 Group   3 Type H   : 5s1p contracted to 3s1p pattern {311/1}
 Group   4 Type Pb  : 10s9p8d2f contracted to 6s5p3d2f pattern {421111/33111/611/11}
 Group   5 Type Cl  : 14s9p3d1f contracted to 5s5p2d1f pattern {73211/51111/21/1}

Atom   0C    basis set group =>   1
Atom   1N    basis set group =>   2
Atom   2H    basis set group =>   3
Atom   3H    basis set group =>   3
Atom   4H    basis set group =>   3
Atom   5H    basis set group =>   3
Atom   6H    basis set group =>   3
Atom   7H    basis set group =>   3
Atom   8Pb   basis set group =>   4
Atom   9Cl   basis set group =>   5
Atom  10Cl   basis set group =>   5
Atom  11Cl   basis set group =>   5
-------------------------------
AUXILIARY BASIS SET INFORMATION
-------------------------------
There are 5 groups of distinct atoms

 Group   1 Type C   : 12s5p4d2f1g contracted to 6s4p3d1f1g pattern {711111/2111/211/2/1}
 Group   2 Type N   : 12s5p4d2f1g contracted to 6s4p3d1f1g pattern {711111/2111/211/2/1}
 Group   3 Type H   : 5s2p1d contracted to 3s1p1d pattern {311/2/1}
 Group   4 Type Pb  : 31s12p8d6f3g contracted to 31s12p8d6f3g pattern {1111111111111111111111111111111/111111111111/11111111/111111/111}
 Group   5 Type Cl  : 14s5p5d2f1g contracted to 8s4p3d1f1g pattern {71111111/2111/311/2/1}

Atom   0C    basis set group =>   1
Atom   1N    basis set group =>   2
Atom   2H    basis set group =>   3
Atom   3H    basis set group =>   3
Atom   4H    basis set group =>   3
Atom   5H    basis set group =>   3
Atom   6H    basis set group =>   3
Atom   7H    basis set group =>   3
Atom   8Pb   basis set group =>   4
Atom   9Cl   basis set group =>   5
Atom  10Cl   basis set group =>   5
Atom  11Cl   basis set group =>   5

-------------------------
ECP PARAMETER INFORMATION
-------------------------

 Group 1, Type Pb ECP SD(60,MDF) (replacing 60 core electrons, lmax=5)

Atom   8Pb   ECP group =>   1


------------------------------------------------------------------------------
                           ORCA GTO INTEGRAL CALCULATION
                           -- RI-GTO INTEGRALS CHOSEN --
------------------------------------------------------------------------------

                         BASIS SET STATISTICS AND STARTUP INFO

Gaussian basis set:
 # of primitive gaussian shells          ...  186
 # of primitive gaussian functions       ...  420
 # of contracted shells                  ...  101
 # of contracted basis functions         ...  259
 Highest angular momentum                ...    3
 Maximum contraction depth               ...    7
Auxiliary gaussian basis set:
 # of primitive gaussian shells          ...  237
 # of primitive gaussian functions       ...  643
 # of contracted shells                  ...  171
 # of contracted aux-basis functions     ...  493
 Highest angular momentum                ...    4
 Maximum contraction depth               ...    7
Ratio of auxiliary to basis functions    ...  1.90
Integral package used                  ... LIBINT
 One Electron integrals                  
   ECP integrals                         ... done
 Ordering auxiliary basis shells         ... done
 Integral threshhold             Thresh  ...  2.500e-11
 Primitive cut-off               TCut    ...  2.500e-12
 Pre-screening matrix                    ... done
 Shell pair data                         ... 
 Ordering of the shell pairs             ... done (   0.001 sec) 4487 of 5151 pairs
 Determination of significant pairs      ... done (   0.000 sec)
 Creation of shell pair data             ... done (   0.002 sec)
 Storage of shell pair data              ... done (   0.001 sec)
 Shell pair data done in (   0.003 sec)
 Computing two index integrals           ... done
 Cholesky decomposition of the V-matrix  ... done


Timings:
 Total evaluation time                   ...   0.575 sec (  0.010 min)
 One electron matrix time                ...   0.311 sec (  0.005 min) = 54.1%
 Schwartz matrix evaluation time         ...   0.216 sec (  0.004 min) = 37.5%
 Two index repulsion integral time       ...   0.009 sec (  0.000 min) =  1.5%
 Cholesky decomposition of V             ...   0.009 sec (  0.000 min) =  1.6%
 Three index repulsion integral time     ...   0.000 sec (  0.000 min) =  0.0%

-------------------------------------------------------------------------------
                                 ORCA SCF
-------------------------------------------------------------------------------

------------
SCF SETTINGS
------------
Hamiltonian:
 Density Functional     Method          .... DFT(GTOs)
 Exchange Functional    Exchange        .... B88
   X-Alpha parameter    XAlpha          ....  0.666667
   Becke's b parameter  XBeta           ....  0.004200
 Correlation Functional Correlation     .... LYP
 LDA part of GGA corr.  LDAOpt          .... VWN-3
 Gradients option       PostSCFGGA      .... off
 Hybrid DFT is turned on
   Fraction HF Exchange ScalHFX         ....  0.530000
   Scaling of DF-GGA-X  ScalDFX         ....  0.470000
   Scaling of DF-GGA-C  ScalDFC         ....  0.730000
   Scaling of DF-LDA-C  ScalLDAC        ....  0.730000
   Perturbative correction              ....  0.270000
 RI-approximation to the Coulomb term is turned on
   Number of auxiliary basis functions  .... 493
   RIJ-COSX (HFX calculated with COS-X)).... on


General Settings:
 Integral files         IntName         .... PbMACl3_mp2_md2_18.orca
 Hartree-Fock type      HFTyp           .... RHF
 Total Charge           Charge          ....    0
 Multiplicity           Mult            ....    1
 Number of Electrons    NEL             ....   92
 Basis Dimension        Dim             ....  259
 Nuclear Repulsion      ENuc            ....    611.4326622540 Eh

Convergence Acceleration:
 DIIS                   CNVDIIS         .... on
   Start iteration      DIISMaxIt       ....     0
   Startup error        DIISStart       ....  0.200000
   # of expansion vecs  DIISMaxEq       ....     5
   Bias factor          DIISBfac        ....   1.050
   Max. coefficient     DIISMaxC        ....  10.000
 Newton-Raphson         CNVNR           .... off
 SOSCF                  CNVSOSCF        .... on
   Start iteration      SOSCFMaxIt      ....   150
   Startup grad/error   SOSCFStart      ....  0.001000
 Level Shifting         CNVShift        .... on
   Level shift para.    LevelShift      ....    0.2500
   Turn off err/grad.   ShiftErr        ....    0.0000
 Zerner damping         CNVZerner       .... off
 Static damping         CNVDamp         .... on
   Fraction old density DampFac         ....    0.8500
   Max. Damping (<1)    DampMax         ....    0.9800
   Min. Damping (>=0)   DampMin         ....    0.0000
   Turn off err/grad.   DampErr         ....    0.0300
 Fernandez-Rico         CNVRico         .... off

SCF Procedure:
 Maximum # iterations   MaxIter         ....   125
 SCF integral mode      SCFMode         .... Direct
   Integral package                     .... LIBINT
 Reset frequeny         DirectResetFreq ....    20
 Integral Threshold     Thresh          ....  2.500e-11 Eh
 Primitive CutOff       TCut            ....  2.500e-12 Eh

Convergence Tolerance:
 Convergence Check Mode ConvCheckMode   .... Total+1el-Energy
 Energy Change          TolE            ....  1.000e-08 Eh
 1-El. energy change                    ....  1.000e-05 Eh
 Orbital Gradient       TolG            ....  1.000e-05
 Orbital Rotation angle TolX            ....  1.000e-05
 DIIS Error             TolErr          ....  5.000e-07


Diagonalization of the overlap matrix:
Smallest eigenvalue                        ... 1.055e-03
Time for diagonalization                   ...    0.018 sec
Threshold for overlap eigenvalues          ... 1.000e-08
Number of eigenvalues below threshold      ... 0
Time for construction of square roots      ...    0.006 sec
Total time needed                          ...    0.024 sec

---------------------
INITIAL GUESS: MOREAD
---------------------
Guess MOs are being read from file: previous.gbw
Input geometry compatible with but different from current geometry
Input basis set matches current basis set (good)
MOs were renormalized
MOs were reorthogonalized (Schmidt)
                      ------------------
                      INITIAL GUESS DONE (   0.1 sec)
                      ------------------
-------------------
DFT GRID GENERATION
-------------------

General Integration Accuracy     IntAcc      ...  5.010
Radial Grid Type                 RadialGrid  ... Gauss-Chebyshev
Angular Grid (max. acc.)         AngularGrid ... Lebedev-434
Angular grid pruning method      GridPruning ... 3 (G Style)
Weight generation scheme         WeightScheme... Becke
Basis function cutoff            BFCut       ...    1.0000e-11
Integration weight cutoff        WCut        ...    1.0000e-14
Grids for H and He will be reduced by one unit

# of grid points (after initial pruning)     ... 115882 (   0.0 sec)
# of grid points (after weights+screening)   ... 108531 (   0.2 sec)
nearest neighbour list constructed           ...    0.0 sec
Grid point re-assignment to atoms done       ...    0.0 sec
Grid point division into batches done        ...    0.9 sec
Reduced shell lists constructed in    3.6 sec

Total number of grid points                  ...   108531
Total number of batches                      ...     1701
Average number of points per batch           ...       63
Average number of grid points per atom       ...     9044
Average number of shells per batch           ...    56.05 (55.49%)
Average number of basis functions per batch  ...   148.47 (57.32%)
Average number of large shells per batch     ...    42.52 (75.87%)
Average number of large basis fcns per batch ...   109.58 (73.81%)
Maximum spatial batch extension              ...  33.47, 34.11, 33.56 au
Average spatial batch extension              ...   2.43,  2.39,  2.41 au

Time for grid setup =    3.813 sec

--------------------
COSX GRID GENERATION
--------------------

General Integration Accuracy     IntAcc      ...  3.340
Radial Grid Type                 RadialGrid  ... Gauss-Chebyshev
Angular Grid (max. acc.)         AngularGrid ... Lebedev-50
Angular grid pruning method      GridPruning ... 3 (G Style)
Weight generation scheme         WeightScheme... Becke
Basis function cutoff            BFCut       ...    1.0000e-11
Integration weight cutoff        WCut        ...    1.0000e-14
Grids for H and He will be reduced by one unit

# of grid points (after initial pruning)     ...   6578 (   0.0 sec)
# of grid points (after weights+screening)   ...   6168 (   0.0 sec)
nearest neighbour list constructed           ...    0.0 sec
Grid point re-assignment to atoms done       ...    0.0 sec
Grid point division into batches done        ...    0.0 sec
Reduced shell lists constructed in    0.2 sec

Total number of grid points                  ...     6168
Total number of batches                      ...      104
Average number of points per batch           ...       59
Average number of grid points per atom       ...      514
Average number of shells per batch           ...    67.35 (66.69%)
Average number of basis functions per batch  ...   180.72 (69.78%)
Average number of large shells per batch     ...    53.26 (79.07%)
Average number of large basis fcns per batch ...   139.89 (77.40%)
Maximum spatial batch extension              ...  29.87, 29.75, 30.05 au
Average spatial batch extension              ...   5.85,  6.08,  5.96 au

Overlap Fitting                  UseSFitting ... on
Constructing numerical overlap ... done (      0.1 sec)
Inverting numerical overlap    ... done (      0.0 sec)
Obtaining analytic overlap     ... done (      0.0 sec)
Final contraction and storage  ... done (      0.0 sec)


General Integration Accuracy     IntAcc      ...  3.670
Radial Grid Type                 RadialGrid  ... Gauss-Chebyshev
Angular Grid (max. acc.)         AngularGrid ... Lebedev-50
Angular grid pruning method      GridPruning ... 3 (G Style)
Weight generation scheme         WeightScheme... Becke
Basis function cutoff            BFCut       ...    1.0000e-11
Integration weight cutoff        WCut        ...    1.0000e-14
Grids for H and He will be reduced by one unit

# of grid points (after initial pruning)     ...   8124 (   0.0 sec)
# of grid points (after weights+screening)   ...   7602 (   0.0 sec)
nearest neighbour list constructed           ...    0.0 sec
Grid point re-assignment to atoms done       ...    0.0 sec
Grid point division into batches done        ...    0.0 sec
Reduced shell lists constructed in    0.2 sec

Total number of grid points                  ...     7602
Total number of batches                      ...      124
Average number of points per batch           ...       61
Average number of grid points per atom       ...      634
Average number of shells per batch           ...    66.75 (66.09%)
Average number of basis functions per batch  ...   179.20 (69.19%)
Average number of large shells per batch     ...    52.35 (78.43%)
Average number of large basis fcns per batch ...   136.70 (76.29%)
Maximum spatial batch extension              ...  31.78, 30.79, 30.64 au
Average spatial batch extension              ...   5.61,  5.62,  5.65 au

Overlap Fitting                  UseSFitting ... on
Constructing numerical overlap ... done (      0.1 sec)
Inverting numerical overlap    ... done (      0.0 sec)
Obtaining analytic overlap     ... done (      0.0 sec)
Final contraction and storage  ... done (      0.0 sec)


General Integration Accuracy     IntAcc      ...  4.010
Radial Grid Type                 RadialGrid  ... Gauss-Chebyshev
Angular Grid (max. acc.)         AngularGrid ... Lebedev-110
Angular grid pruning method      GridPruning ... 3 (G Style)
Weight generation scheme         WeightScheme... Becke
Basis function cutoff            BFCut       ...    1.0000e-11
Integration weight cutoff        WCut        ...    1.0000e-14
Grids for H and He will be reduced by one unit

# of grid points (after initial pruning)     ...  15170 (   0.0 sec)
# of grid points (after weights+screening)   ...  14342 (   0.0 sec)
nearest neighbour list constructed           ...    0.0 sec
Grid point re-assignment to atoms done       ...    0.0 sec
Grid point division into batches done        ...    0.0 sec
Reduced shell lists constructed in    0.4 sec

Total number of grid points                  ...    14342
Total number of batches                      ...      230
Average number of points per batch           ...       62
Average number of grid points per atom       ...     1195
Average number of shells per batch           ...    63.32 (62.70%)
Average number of basis functions per batch  ...   169.84 (65.58%)
Average number of large shells per batch     ...    49.11 (77.55%)
Average number of large basis fcns per batch ...   128.30 (75.54%)
Maximum spatial batch extension              ...  34.29, 34.29, 34.29 au
Average spatial batch extension              ...   4.84,  4.88,  4.86 au

Overlap Fitting                  UseSFitting ... on
Constructing numerical overlap ... done (      0.2 sec)
Inverting numerical overlap    ... done (      0.0 sec)
Obtaining analytic overlap     ... done (      0.0 sec)
Final contraction and storage  ... done (      0.0 sec)

Time for X-Grid setup             =    1.460 sec
--------------
SCF ITERATIONS
--------------
ITER       Energy         Delta-E        Max-DP      RMS-DP      [F,P]     Damp
               ***  Starting incremental Fock matrix formation  ***
  0  -1668.9843954842   0.000000000000 0.00650731  0.00016068  0.3053213 0.8500
  1  -1668.9890749998  -0.004679515566 0.00837443  0.00018007  0.2597711 0.8500
                               ***Turning on DIIS***
  2  -1668.9931458749  -0.004070875085 0.00858500  0.00016793  0.2208865 0.8500
  3  -1668.9965665756  -0.003420700734 0.00902070  0.00015525  0.1878208 0.8500
  4  -1668.9994922938  -0.002925718171 0.00917003  0.00014628  0.1596869 0.8500
  5  -1669.0019916786  -0.002499384845 0.00866773  0.00013363  0.1357498 0.8500
  6  -1669.0041656060  -0.002173927398 0.00758338  0.00011900  0.1153934 0.8500
  7  -1669.0060644953  -0.001898889217 0.00640361  0.00010426  0.0980868 0.8500
  8  -1669.0077225507  -0.001658055466 0.00555429  0.00009090  0.0833759 0.8500
  9  -1669.0091594404  -0.001436889634 0.00484398  0.00007893  0.0708716 0.8500
 10  -1669.0104010167  -0.001241576353 0.00424497  0.00006824  0.0602427 0.8500
 11  -1669.0114729413  -0.001071924585 0.00365233  0.00005879  0.0512081 0.8500
 12  -1669.0123975095  -0.000924568233 0.00310739  0.00005053  0.0435284 0.8500
 13  -1669.0131937560  -0.000796246441 0.00264883  0.00004338  0.0370004 0.8500
 14  -1669.0138782003  -0.000684444284 0.00227141  0.00003722  0.0314514 0.8500
 15  -1669.0144656019  -0.000587401683 0.01301103  0.00021277  0.0267347 0.0000
                      *** Initiating the SOSCF procedure ***
                           *** Shutting down DIIS ***
                      *** Re-Reading the Fockian *** 
                      *** Removing any level shift *** 
ITER      Energy       Delta-E        Grad      Rot      Max-DP    RMS-DP
 16  -1669.01790097  -0.0034353730  0.000117  0.000117  0.000397  0.000005
               *** Restarting incremental Fock matrix formation ***
 17  -1669.01789209   0.0000088859  0.000070  0.000188  0.000184  0.000004
 18  -1669.01789230  -0.0000002116  0.000026  0.000113  0.000134  0.000003
 19  -1669.01789236  -0.0000000620  0.000024  0.000029  0.000074  0.000001
                  ***Gradient check signals convergence***
              ***Rediagonalizing the Fockian in SOSCF/NRSCF***

               *****************************************************
               *                     SUCCESS                       *
               *           SCF CONVERGED AFTER  20 CYCLES          *
               *****************************************************

Old exchange energy                            =    -59.229794785 Eh
New exchange energy                            =    -59.233301483 Eh
Exchange energy change after final integration =     -0.003506698 Eh
Total energy after final integration           =  -1669.021399071 Eh
Final COS-X integration done in                =    21.633 sec

----------------
TOTAL SCF ENERGY
----------------

Total Energy       :        -1669.02139907 Eh          -45416.38119 eV

Components:
Nuclear Repulsion  :          611.43266225 Eh           16637.92860 eV
Electronic Energy  :        -2280.45406133 Eh          -62054.30979 eV

One Electron Energy:        -3592.96171413 Eh          -97769.45874 eV
Two Electron Energy:         1312.50765281 Eh           35715.14896 eV

Virial components:
Potential Energy   :        -3206.96838919 Eh          -87266.04639 eV
Kinetic Energy     :         1537.94699011 Eh           41849.66520 eV
Virial Ratio       :            2.08522687


DFT components:
N(Alpha)           :       46.000017857358 electrons
N(Beta)            :       46.000017857358 electrons
N(Total)           :       92.000035714715 electrons
E(X)               :      -52.601457716522 Eh       
E(C)               :       -2.612999048578 Eh       
E(XC)              :      -55.214456765100 Eh       

---------------
SCF CONVERGENCE
---------------

  Last Energy change         ...   -1.1035e-08  Tolerance :   1.0000e-08
  Last MAX-Density change    ...    3.1489e-14  Tolerance :   1.0000e-07
  Last RMS-Density change    ...    6.1308e-16  Tolerance :   5.0000e-09
  Last Orbital Gradient      ...    9.0161e-07  Tolerance :   1.0000e-05
  Last Orbital Rotation      ...    1.2876e-06  Tolerance :   1.0000e-05

             **** THE GBW FILE WAS UPDATED (PbMACl3_mp2_md2_18.orca.gbw) ****
             **** DENSITY FILE WAS UPDATED (PbMACl3_mp2_md2_18.orca.scfp.tmp) ****
             **** ENERGY FILE WAS UPDATED (PbMACl3_mp2_md2_18.orca.en.tmp) ****
----------------
ORBITAL ENERGIES
----------------

  NO   OCC          E(Eh)            E(eV) 
   0   2.0000    -102.866199     -2799.1316 
   1   2.0000    -102.864588     -2799.0877 
   2   2.0000    -102.863975     -2799.0711 
   3   2.0000     -14.958722      -407.0475 
   4   2.0000     -10.710524      -291.4482 
   5   2.0000      -9.874670      -268.7034 
   6   2.0000      -9.872913      -268.6556 
   7   2.0000      -9.871999      -268.6308 
   8   2.0000      -7.511568      -204.4002 
   9   2.0000      -7.510084      -204.3598 
  10   2.0000      -7.509821      -204.3526 
  11   2.0000      -7.509583      -204.3461 
  12   2.0000      -7.509024      -204.3309 
  13   2.0000      -7.508352      -204.3126 
  14   2.0000      -7.507808      -204.2978 
  15   2.0000      -7.507320      -204.2846 
  16   2.0000      -7.506932      -204.2740 
  17   2.0000      -5.797994      -157.7714 
  18   2.0000      -3.569963       -97.1436 
  19   2.0000      -3.568173       -97.0949 
  20   2.0000      -3.567868       -97.0866 
  21   2.0000      -1.145047       -31.1583 
  22   2.0000      -0.975493       -26.5445 
  23   2.0000      -0.975180       -26.5360 
  24   2.0000      -0.962694       -26.1962 
  25   2.0000      -0.958258       -26.0755 
  26   2.0000      -0.957958       -26.0674 
  27   2.0000      -0.907837       -24.7035 
  28   2.0000      -0.879639       -23.9362 
  29   2.0000      -0.874987       -23.8096 
  30   2.0000      -0.858896       -23.3717 
  31   2.0000      -0.671501       -18.2725 
  32   2.0000      -0.670726       -18.2514 
  33   2.0000      -0.609933       -16.5971 
  34   2.0000      -0.560155       -15.2426 
  35   2.0000      -0.523294       -14.2396 
  36   2.0000      -0.522691       -14.2232 
  37   2.0000      -0.403323       -10.9750 
  38   2.0000      -0.401056       -10.9133 
  39   2.0000      -0.382657       -10.4126 
  40   2.0000      -0.365256        -9.9391 
  41   2.0000      -0.364646        -9.9225 
  42   2.0000      -0.360972        -9.8225 
  43   2.0000      -0.360420        -9.8075 
  44   2.0000      -0.353176        -9.6104 
  45   2.0000      -0.287721        -7.8293 
  46   0.0000      -0.008401        -0.2286 
  47   0.0000       0.032318         0.8794 
  48   0.0000       0.036169         0.9842 
  49   0.0000       0.040977         1.1150 
  50   0.0000       0.088837         2.4174 
  51   0.0000       0.111141         3.0243 
  52   0.0000       0.112156         3.0519 
  53   0.0000       0.114892         3.1264 
  54   0.0000       0.137712         3.7473 
  55   0.0000       0.142780         3.8853 
  56   0.0000       0.156709         4.2643 
  57   0.0000       0.160023         4.3544 
  58   0.0000       0.180863         4.9215 
  59   0.0000       0.234604         6.3839 
  60   0.0000       0.239658         6.5214 
  61   0.0000       0.250442         6.8149 
  62   0.0000       0.258552         7.0356 
  63   0.0000       0.267964         7.2917 
  64   0.0000       0.277114         7.5406 
  65   0.0000       0.279448         7.6042 
  66   0.0000       0.283991         7.7278 
  67   0.0000       0.321268         8.7421 
  68   0.0000       0.325046         8.8450 
  69   0.0000       0.354066         9.6346 
  70   0.0000       0.388564        10.5734 
  71   0.0000       0.406735        11.0678 
  72   0.0000       0.413779        11.2595 
  73   0.0000       0.421680        11.4745 
  74   0.0000       0.428343        11.6558 
  75   0.0000       0.430253        11.7078 
  76   0.0000       0.433042        11.7837 
  77   0.0000       0.443213        12.0604 
  78   0.0000       0.446468        12.1490 
  79   0.0000       0.449979        12.2445 
  80   0.0000       0.487027        13.2527 
  81   0.0000       0.487246        13.2586 
  82   0.0000       0.498845        13.5743 
  83   0.0000       0.521103        14.1799 
  84   0.0000       0.529049        14.3962 
  85   0.0000       0.531316        14.4579 
  86   0.0000       0.533840        14.5265 
  87   0.0000       0.540970        14.7205 
  88   0.0000       0.556782        15.1508 
  89   0.0000       0.560266        15.2456 
  90   0.0000       0.576036        15.6747 
  91   0.0000       0.583761        15.8849 
  92   0.0000       0.587441        15.9851 
  93   0.0000       0.626399        17.0452 
  94   0.0000       0.630944        17.1689 
  95   0.0000       0.640051        17.4167 
  96   0.0000       0.647838        17.6286 
  97   0.0000       0.669932        18.2298 
  98   0.0000       0.687326        18.7031 
  99   0.0000       0.705082        19.1863 
 100   0.0000       0.710935        19.3455 
 101   0.0000       0.719694        19.5839 
 102   0.0000       0.760356        20.6903 
 103   0.0000       0.782840        21.3021 
 104   0.0000       0.791623        21.5411 
 105   0.0000       0.862185        23.4612 
 106   0.0000       0.869932        23.6721 
 107   0.0000       0.879023        23.9194 
 108   0.0000       0.891630        24.2625 
 109   0.0000       0.893448        24.3119 
 110   0.0000       0.912121        24.8201 
 111   0.0000       0.914033        24.8721 
 112   0.0000       0.919634        25.0245 
 113   0.0000       0.948615        25.8131 
 114   0.0000       0.968881        26.3646 
 115   0.0000       0.980601        26.6835 
 116   0.0000       1.055854        28.7312 
 117   0.0000       1.067854        29.0578 
 118   0.0000       1.070107        29.1191 
 119   0.0000       1.088174        29.6107 
 120   0.0000       1.094675        29.7876 
 121   0.0000       1.097571        29.8664 
 122   0.0000       1.142100        31.0781 
 123   0.0000       1.229437        33.4547 
 124   0.0000       1.232506        33.5382 
 125   0.0000       1.301116        35.4052 
 126   0.0000       1.315182        35.7879 
 127   0.0000       1.316754        35.8307 
 128   0.0000       1.396823        38.0095 
 129   0.0000       1.417631        38.5757 
 130   0.0000       1.487556        40.4784 
 131   0.0000       1.564800        42.5804 
 132   0.0000       1.574325        42.8396 
 133   0.0000       1.593047        43.3490 
 134   0.0000       1.602965        43.6189 
 135   0.0000       1.608701        43.7750 
 136   0.0000       1.752184        47.6794 
 137   0.0000       1.779997        48.4362 
 138   0.0000       1.789620        48.6980 
 139   0.0000       1.887853        51.3711 
 140   0.0000       1.892732        51.5039 
 141   0.0000       1.900683        51.7202 
 142   0.0000       1.916555        52.1521 
 143   0.0000       1.919505        52.2324 
 144   0.0000       1.931205        52.5508 
 145   0.0000       1.954917        53.1960 
 146   0.0000       1.956911        53.2503 
 147   0.0000       1.965088        53.4728 
 148   0.0000       1.972986        53.6877 
 149   0.0000       2.007940        54.6388 
 150   0.0000       2.021363        55.0041 
 151   0.0000       2.025301        55.1113 
 152   0.0000       2.034462        55.3605 
 153   0.0000       2.039207        55.4897 
 154   0.0000       2.095905        57.0325 
 155   0.0000       2.105217        57.2859 
 156   0.0000       2.109809        57.4108 
 157   0.0000       2.113106        57.5005 
 158   0.0000       2.116299        57.5874 
 159   0.0000       2.120250        57.6949 
 160   0.0000       2.138176        58.1827 
 161   0.0000       2.147056        58.4244 
 162   0.0000       2.153857        58.6094 
 163   0.0000       2.171172        59.0806 
 164   0.0000       2.181168        59.3526 
 165   0.0000       2.182893        59.3995 
 166   0.0000       2.195782        59.7503 
 167   0.0000       2.207477        60.0685 
 168   0.0000       2.221123        60.4398 
 169   0.0000       2.231009        60.7088 
 170   0.0000       2.235313        60.8260 
 171   0.0000       2.238699        60.9181 
 172   0.0000       2.248358        61.1809 
 173   0.0000       2.261101        61.5277 
 174   0.0000       2.263650        61.5971 
 175   0.0000       2.272864        61.8478 
 176   0.0000       2.283237        62.1300 
 177   0.0000       2.310862        62.8818 
 178   0.0000       2.321437        63.1695 
 179   0.0000       2.337486        63.6062 
 180   0.0000       2.369403        64.4747 
 181   0.0000       2.373834        64.5953 
 182   0.0000       2.385246        64.9058 
 183   0.0000       2.387415        64.9649 
 184   0.0000       2.399664        65.2982 
 185   0.0000       2.405483        65.4565 
 186   0.0000       2.417473        65.7828 
 187   0.0000       2.423800        65.9549 
 188   0.0000       2.431073        66.1529 
 189   0.0000       2.441120        66.4263 
 190   0.0000       2.455659        66.8219 
 191   0.0000       2.463727        67.0414 
 192   0.0000       2.478286        67.4376 
 193   0.0000       2.488791        67.7234 
 194   0.0000       2.517724        68.5107 
 195   0.0000       2.525924        68.7339 
 196   0.0000       2.560004        69.6613 
 197   0.0000       2.579065        70.1799 
 198   0.0000       2.613771        71.1243 
 199   0.0000       2.621639        71.3384 
 200   0.0000       2.628837        71.5343 
 201   0.0000       2.633031        71.6484 
 202   0.0000       2.655058        72.2478 
 203   0.0000       2.777049        75.5673 
 204   0.0000       2.792417        75.9855 
 205   0.0000       2.807245        76.3890 
 206   0.0000       2.813606        76.5621 
 207   0.0000       2.849593        77.5414 
 208   0.0000       2.895944        78.8026 
 209   0.0000       2.920143        79.4611 
 210   0.0000       2.954140        80.3862 
 211   0.0000       3.078846        83.7796 
 212   0.0000       3.139544        85.4313 
 213   0.0000       3.143322        85.5341 
 214   0.0000       3.220709        87.6400 
 215   0.0000       3.243809        88.2685 
 216   0.0000       3.315320        90.2144 
 217   0.0000       3.395773        92.4037 
 218   0.0000       3.425660        93.2169 
 219   0.0000       3.556560        96.7789 
 220   0.0000       3.585457        97.5652 
 221   0.0000       3.593188        97.7756 
 222   0.0000       3.780328       102.8680 
 223   0.0000       3.783003       102.9407 
 224   0.0000       3.926766       106.8527 
 225   0.0000       4.202898       114.3667 
 226   0.0000       4.211742       114.6073 
 227   0.0000       4.416035       120.1664 
 228   0.0000       4.450523       121.1049 
 229   0.0000       4.854768       132.1050 
 230   0.0000       4.856757       132.1591 
 231   0.0000       4.961028       134.9964 
 232   0.0000       4.975472       135.3895 
 233   0.0000       5.113079       139.1340 
 234   0.0000       5.135650       139.7481 
 235   0.0000       5.149378       140.1217 
 236   0.0000       5.333887       145.1424 
 237   0.0000       5.524194       150.3210 
 238   0.0000       5.538651       150.7143 
 239   0.0000       5.860548       159.4736 
 240   0.0000      11.039617       300.4033 
 241   0.0000      11.039925       300.4116 
 242   0.0000      11.054562       300.8099 
 243   0.0000      11.090565       301.7896 
 244   0.0000      11.107532       302.2513 
 245   0.0000      11.112360       302.3827 
 246   0.0000      11.172264       304.0128 
 247   0.0000      11.210615       305.0563 
 248   0.0000      11.215544       305.1905 
 249   0.0000      22.673819       616.9860 
 250   0.0000      25.322841       689.0695 
 251   0.0000      25.385962       690.7871 
 252   0.0000      25.536453       694.8822 
 253   0.0000      32.432331       882.5286 
 254   0.0000      35.568843       967.8774 
 255   0.0000      35.820321       974.7205 
 256   0.0000      35.832215       975.0441 
 257   0.0000      35.923064       977.5163 
 258   0.0000     123.631849      3364.1936 

                    ********************************
                    * MULLIKEN POPULATION ANALYSIS *
                    ********************************

-----------------------
MULLIKEN ATOMIC CHARGES
-----------------------
   0 C :   -0.261496
   1 N :   -0.330556
   2 H :    0.158595
   3 H :    0.160198
   4 H :    0.160062
   5 H :    0.290767
   6 H :    0.298763
   7 H :    0.296061
   8 Pb:    0.776177
   9 Cl:   -0.517673
  10 Cl:   -0.517501
  11 Cl:   -0.513396
Sum of atomic charges:   -0.0000000

--------------------------------
MULLIKEN REDUCED ORBITAL CHARGES
--------------------------------
  0 C s       :     3.281304  s :     3.281304
      pz      :     0.977989  p :     2.905120
      px      :     0.991645
      py      :     0.935486
      dz2     :     0.006822  d :     0.068912
      dxz     :     0.018200
      dyz     :     0.018075
      dx2y2   :     0.007578
      dxy     :     0.018237
      f0      :     0.000360  f :     0.006160
      f+1     :     0.000508
      f-1     :     0.000738
      f+2     :     0.000768
      f-2     :     0.002646
      f+3     :     0.000518
      f-3     :     0.000622
  1 N s       :     3.428535  s :     3.428535
      pz      :     1.285796  p :     3.853422
      px      :     1.290948
      py      :     1.276677
      dz2     :     0.005341  d :     0.046460
      dxz     :     0.012242
      dyz     :     0.011420
      dx2y2   :     0.005863
      dxy     :     0.011594
      f0      :     0.000111  f :     0.002139
      f+1     :     0.000162
      f-1     :     0.000195
      f+2     :     0.000213
      f-2     :     0.001128
      f+3     :     0.000160
      f-3     :     0.000169
  2 H s       :     0.819663  s :     0.819663
      pz      :     0.008305  p :     0.021742
      px      :     0.007787
      py      :     0.005650
  3 H s       :     0.818040  s :     0.818040
      pz      :     0.006915  p :     0.021762
      px      :     0.007355
      py      :     0.007492
  4 H s       :     0.818159  s :     0.818159
      pz      :     0.006779  p :     0.021779
      px      :     0.007411
      py      :     0.007589
  5 H s       :     0.669202  s :     0.669202
      pz      :     0.009811  p :     0.040032
      px      :     0.014395
      py      :     0.015825
  6 H s       :     0.655216  s :     0.655216
      pz      :     0.017332  p :     0.046021
      px      :     0.011275
      py      :     0.017414
  7 H s       :     0.657621  s :     0.657621
      pz      :     0.018311  p :     0.046318
      px      :     0.019078
      py      :     0.008930
  8 Pbs       :     3.926423  s :     3.926423
      pz      :     2.372906  p :     7.066736
      px      :     2.341015
      py      :     2.352814
      dz2     :     2.030910  d :    10.156984
      dxz     :     2.032680
      dyz     :     2.031971
      dx2y2   :     2.030087
      dxy     :     2.031336
      f0      :     0.015386  f :     0.073680
      f+1     :     0.011128
      f-1     :     0.011122
      f+2     :     0.007559
      f-2     :     0.002775
      f+3     :     0.013281
      f-3     :     0.012430
  9 Cls       :     5.952914  s :     5.952914
      pz      :     3.898768  p :    11.540889
      px      :     3.726265
      py      :     3.915856
      dz2     :     0.003691  d :     0.022865
      dxz     :     0.003934
      dyz     :     0.002976
      dx2y2   :     0.008847
      dxy     :     0.003416
      f0      :     0.000073  f :     0.001005
      f+1     :     0.000179
      f-1     :     0.000095
      f+2     :     0.000164
      f-2     :     0.000056
      f+3     :     0.000296
      f-3     :     0.000142
 10 Cls       :     5.953274  s :     5.953274
      pz      :     3.918586  p :    11.540778
      px      :     3.887131
      py      :     3.735061
      dz2     :     0.003247  d :     0.022467
      dxz     :     0.003364
      dyz     :     0.003094
      dx2y2   :     0.008465
      dxy     :     0.004297
      f0      :     0.000097  f :     0.000983
      f+1     :     0.000074
      f-1     :     0.000170
      f+2     :     0.000148
      f-2     :     0.000063
      f+3     :     0.000203
      f-3     :     0.000228
 11 Cls       :     5.952393  s :     5.952393
      pz      :     3.734281  p :    11.538437
      px      :     3.908891
      py      :     3.895264
      dz2     :     0.010707  d :     0.021578
      dxz     :     0.003709
      dyz     :     0.004060
      dx2y2   :     0.000868
      dxy     :     0.002233
      f0      :     0.000397  f :     0.000988
      f+1     :     0.000200
      f-1     :     0.000219
      f+2     :     0.000042
      f-2     :     0.000062
      f+3     :     0.000044
      f-3     :     0.000024


                     *******************************
                     * LOEWDIN POPULATION ANALYSIS *
                     *******************************

----------------------
LOEWDIN ATOMIC CHARGES
----------------------
   0 C :   -0.273579
   1 N :    0.068372
   2 H :    0.125359
   3 H :    0.126115
   4 H :    0.126420
   5 H :    0.172450
   6 H :    0.146950
   7 H :    0.144635
   8 Pb:   -0.115902
   9 Cl:   -0.170749
  10 Cl:   -0.177569
  11 Cl:   -0.172503

-------------------------------
LOEWDIN REDUCED ORBITAL CHARGES
-------------------------------
  0 C s       :     2.853070  s :     2.853070
      pz      :     1.032135  p :     3.079794
      px      :     1.041884
      py      :     1.005776
      dz2     :     0.028963  d :     0.303618
      dxz     :     0.079095
      dyz     :     0.081999
      dx2y2   :     0.032786
      dxy     :     0.080775
      f0      :     0.005252  f :     0.037098
      f+1     :     0.003942
      f-1     :     0.005741
      f+2     :     0.004393
      f-2     :     0.007016
      f+3     :     0.004909
      f-3     :     0.005845
  1 N s       :     3.000731  s :     3.000731
      pz      :     1.253953  p :     3.762312
      px      :     1.256617
      py      :     1.251742
      dz2     :     0.017217  d :     0.159099
      dxz     :     0.041871
      dyz     :     0.040422
      dx2y2   :     0.018873
      dxy     :     0.040716
      f0      :     0.001444  f :     0.009485
      f+1     :     0.001124
      f-1     :     0.001409
      f+2     :     0.001028
      f-2     :     0.001743
      f+3     :     0.001233
      f-3     :     0.001503
  2 H s       :     0.812422  s :     0.812422
      pz      :     0.022864  p :     0.062219
      px      :     0.021689
      py      :     0.017667
  3 H s       :     0.811582  s :     0.811582
      pz      :     0.019396  p :     0.062304
      px      :     0.022319
      py      :     0.020589
  4 H s       :     0.811292  s :     0.811292
      pz      :     0.020778  p :     0.062288
      px      :     0.020730
      py      :     0.020779
  5 H s       :     0.707634  s :     0.707634
      pz      :     0.032489  p :     0.119917
      px      :     0.042173
      py      :     0.045255
  6 H s       :     0.710392  s :     0.710392
      pz      :     0.051899  p :     0.142657
      px      :     0.037969
      py      :     0.052789
  7 H s       :     0.711524  s :     0.711524
      pz      :     0.056293  p :     0.143841
      px      :     0.058100
      py      :     0.029448
  8 Pbs       :     3.686201  s :     3.686201
      pz      :     2.535266  p :     7.538544
      px      :     2.500153
      py      :     2.503125
      dz2     :     2.165728  d :    10.667381
      dxz     :     2.112742
      dyz     :     2.109524
      dx2y2   :     2.168852
      dxy     :     2.110535
      f0      :     0.047014  f :     0.223775
      f+1     :     0.034087
      f-1     :     0.035137
      f+2     :     0.019226
      f-2     :     0.008496
      f+3     :     0.045284
      f-3     :     0.034532
  9 Cls       :     5.731523  s :     5.731523
      pz      :     3.836982  p :    11.393586
      px      :     3.704782
      py      :     3.851821
      dz2     :     0.008355  d :     0.043137
      dxz     :     0.003986
      dyz     :     0.005101
      dx2y2   :     0.022394
      dxy     :     0.003301
      f0      :     0.000103  f :     0.002503
      f+1     :     0.000590
      f-1     :     0.000231
      f+2     :     0.000318
      f-2     :     0.000074
      f+3     :     0.001002
      f-3     :     0.000186
 10 Cls       :     5.735323  s :     5.735323
      pz      :     3.856733  p :    11.398132
      px      :     3.826776
      py      :     3.714623
      dz2     :     0.007408  d :     0.041715
      dxz     :     0.005360
      dyz     :     0.003020
      dx2y2   :     0.020368
      dxy     :     0.005559
      f0      :     0.000124  f :     0.002400
      f+1     :     0.000154
      f-1     :     0.000552
      f+2     :     0.000327
      f-2     :     0.000067
      f+3     :     0.000478
      f-3     :     0.000697
 11 Cls       :     5.731673  s :     5.731673
      pz      :     3.711534  p :    11.398118
      px      :     3.849784
      py      :     3.836799
      dz2     :     0.027538  d :     0.040344
      dxz     :     0.004210
      dyz     :     0.004919
      dx2y2   :     0.000750
      dxy     :     0.002928
      f0      :     0.001335  f :     0.002368
      f+1     :     0.000358
      f-1     :     0.000444
      f+2     :     0.000041
      f-2     :     0.000071
      f+3     :     0.000084
      f-3     :     0.000035


                      *****************************
                      * MAYER POPULATION ANALYSIS *
                      *****************************

  NA   - Mulliken gross atomic population
  ZA   - Total nuclear charge
  QA   - Mulliken gross atomic charge
  VA   - Mayer's total valence
  BVA  - Mayer's bonded valence
  FA   - Mayer's free valence

  ATOM       NA         ZA         QA         VA         BVA        FA
  0 C      6.2615     6.0000    -0.2615     3.8405     3.8405    -0.0000
  1 N      7.3306     7.0000    -0.3306     3.2830     3.2830     0.0000
  2 H      0.8414     1.0000     0.1586     0.9618     0.9618     0.0000
  3 H      0.8398     1.0000     0.1602     0.9625     0.9625    -0.0000
  4 H      0.8399     1.0000     0.1601     0.9632     0.9632    -0.0000
  5 H      0.7092     1.0000     0.2908     0.9624     0.9624    -0.0000
  6 H      0.7012     1.0000     0.2988     0.9657     0.9657    -0.0000
  7 H      0.7039     1.0000     0.2961     0.9680     0.9680     0.0000
  8 Pb    21.2238    22.0000     0.7762     2.0085     2.0085    -0.0000
  9 Cl    17.5177    17.0000    -0.5177     0.8231     0.8231     0.0000
 10 Cl    17.5175    17.0000    -0.5175     0.8238     0.8238    -0.0000
 11 Cl    17.5134    17.0000    -0.5134     0.8279     0.8279    -0.0000

  Mayer bond orders larger than 0.1
B(  0-C ,  1-N ) :   0.8996 B(  0-C ,  2-H ) :   0.9705 B(  0-C ,  3-H ) :   0.9702 
B(  0-C ,  4-H ) :   0.9703 B(  1-N ,  5-H ) :   0.8278 B(  1-N ,  6-H ) :   0.7960 
B(  1-N ,  7-H ) :   0.7947 B(  5-H , 11-Cl) :   0.1342 B(  6-H ,  9-Cl) :   0.1740 
B(  7-H , 10-Cl) :   0.1820 B(  8-Pb,  9-Cl) :   0.6448 B(  8-Pb, 10-Cl) :   0.6433 
B(  8-Pb, 11-Cl) :   0.6926 

-------
TIMINGS
-------

Total SCF time: 0 days 0 hours 4 min 55 sec 

Total time                  ....     295.640 sec
Sum of individual times     ....     272.908 sec  ( 92.3%)

Fock matrix formation       ....     266.669 sec  ( 90.2%)
  Coulomb formation         ....     204.960 sec  ( 76.9% of F)
  Split-RI-J                ....      18.495 sec  (  6.9% of F)
  Chain of spheres X        ....     208.040 sec  ( 78.0% of F)
  COS-X 1 center corr.      ....       0.000 sec  (  0.0% of F)
  XC integration            ....      61.771 sec  ( 23.2% of F)
    Basis function eval.    ....      29.000 sec  ( 46.9% of XC)
    Density eval.           ....      13.844 sec  ( 22.4% of XC)
    XC-Functional eval.     ....       3.552 sec  (  5.8% of XC)
    XC-Potential eval.      ....      14.037 sec  ( 22.7% of XC)
Diagonalization             ....       0.530 sec  (  0.2%)
Density matrix formation    ....       0.036 sec  (  0.0%)
Population analysis         ....       0.073 sec  (  0.0%)
Initial guess               ....       0.115 sec  (  0.0%)
Orbital Transformation      ....       0.000 sec  (  0.0%)
Orbital Orthonormalization  ....       0.112 sec  (  0.0%)
DIIS solution               ....       0.133 sec  (  0.0%)
SOSCF solution              ....       0.079 sec  (  0.0%)
Grid generation             ....       5.273 sec  (  1.8%)

------------------------------------------------------------------------------
                              ORCA MP2 CALCULATION
------------------------------------------------------------------------------


----------------------
RI-MP2 ENERGY+GRADIENT
----------------------
Dimension of the basis                    ...  259
Memory devoted to MP2                     ... 1000 MB   
Data format for buffers                   ... DOUBLE
Compression type for matrix containers    ... UNCOMPRESSED
Overall scaling of the MP2 energy         ...   2.700e-01 Eh
Calculating two index integrals           ... done (    0.012 sec)
Cholesky decomposition of the V-matrix    ... done
Cholesky decomposition of V**-1           ... done (    0.026 sec)

-----------------
RI-TRANSFORMATION (AUX index driven)
-----------------

Dimension of the orbital-basis         ... 259
Dimension of the aux-basis             ... 493
Transformation of internal MOs         ...    0-  45
Transformation of internal/external MOs...    0-  45 to   46- 258
Number Format for Storage              ... Double (8 Byte)
Integral mode                          ... Direct

First Phase: integral generation and transformation of MO indices
  Aux angular momentum 0               ... done (    0.397 sec)
  Aux angular momentum 1               ... done (    0.340 sec)
  Aux angular momentum 2               ... done (    0.416 sec)
  Aux angular momentum 3               ... done (    0.235 sec)
  Aux angular momentum 4               ... done (    0.217 sec)
Closing buffer VIJ ( 0.00 GB; CompressionRatio= 1.95)
Closing buffer VIA ( 0.04 GB; CompressionRatio= 1.00)
  Phase 1 completed in     1.708 sec
Second Phase: sorting and transformation of aux index

IJ-Transformation
Memory available                       ... 990 MB 
Max. # MO pairs treated in a batch     ... 46    
# of internal orbitals                 ... 46
# batches for internal orbitals        ... 1
Closing buffer IJV ( 0.00 GB; CompressionRatio= 1.00)
(ij|v) transformation done in     0.105 sec

IA-Transformation
Memory available                       ... 990 MB 
Max. # MO pairs treated in a batch     ... 46    
# of internal orbitals                 ... 46
# batches for internal orbitals        ... 1
Closing buffer IAV ( 0.04 GB; CompressionRatio= 1.00)
(ia|v) transformation done in     0.377 sec

  Phase 2 completed in     0.503 sec
RI-Integral transformation completed in     2.212 sec
Opening buffers                              ... done

Starting loop over batches of integrals:

Operator 0  - window                       ... (  0- 45)x( 46-258)
Operator 0  - Memory available             ...  1000 MB
Operator 0  - Memory needed per MO         ...   1.6 MB
Operator 0  - Number of orbitals per batch ... 46
Operator 0  - Number of batches            ... 1

OPERATOR  0   PASS   0:  MOs     0 ...   45
  Reading integrals       ... ok
  Internal MO   2
  Internal MO   5
  Internal MO   8
  Internal MO  11
  Internal MO  14
  Internal MO  17
  Internal MO  20
  Internal MO  23
  Internal MO  26
  Internal MO  29
  Internal MO  32
  Internal MO  35
  Internal MO  38
  Internal MO  41
  Internal MO  44
Closing buffer GIPV ( 0.04 GB; CompressionRatio= 1.00)
Time spent in pair loops =    45.698 sec

-----------------------------------------------
 RI-MP2 CORRELATION ENERGY:     -0.582025886 Eh
-----------------------------------------------


---------------------
MP2 DENSITY FORMATION
---------------------

Completing the external part of the density      ... done
Storing the unrelaxed density                    ... done

Calculating the xc-kernel                        ... done
Calculating G(D)                                 ... done
Completing the Lagrangian                        ... done
Solving the Z-vector equations                   ... 

------------------------------------------------------------------------------
                           ORCA CP-SCF CALCULATION
------------------------------------------------------------------------------

Input orbitals are from        ... PbMACl3_mp2_md2_18.orca.gbw
Input Perturbation             ... PbMACl3_mp2_md2_18.orca.pin.tmp
Wavefunction output            ... PbMACl3_mp2_md2_18.orca.pout.tmp
Perturbation mode              ... Real perturbation
Solver                         ... DIIS
   MaxDIIS                     ... 20
   Levelshift                  ...    3.000e-01 Eh
Max. number of iterations      ... 128
Convergence tolerance          ... 1.000e-08
Integral handling              ... Direct
COSX GridX                     ... 1
Number of perturbations        ... 1
Number of operators            ... 1
Orbital ranges used for CP-SCF:
 Operator 0:  Orbitals   0... 45  to  46...258
DFT calculation                         ... on
Exchange functional (SCF)               ... B88
Exchange functional (CP-SCF)            ... B88
   X-Alpha parameter    XAlpha (SCF)    ...  0.666667
   X-Alpha parameter    XAlpha (CP-SCF) ...  0.666667
   Becke's b parameter  XBeta (SCF)     ...  0.004200
   Becke's b parameter  XBeta (CP-SCF)  ...  0.004200
Correlation functional (SCF)            ... LYP
Correlation functional (CP-SCF)         ... LYP
 LDA part of GGA corr.  LDAOpt (SCF)    ... VWN-3
 LDA part of GGA corr.  LDAOpt (CP-SCF) ... VWN-3
Hybrid DFT                              ... on
   Exchange mixing (SCF)                ...  0.530
   Exchange mixing (CP-SCF)             ...  0.530
   GGA exch. scaling(SCF)               ...  0.470
   GGA exch. scaling (CP-SCF)           ...  0.470
   GGA corr. scaling (SCF)              ...  0.730
   GGA corr. scaling (CP-SCF)           ...  0.730
The RIJCOSX approximation is active
Variables per vector in CP-SCF ... 9798
Number of vectors sought       ... 1
Calculating the xc-kernel      ... done

Solving the CP-SCF equations by a DIIS algorithm

-----------------
CP-SCF ITERATIONS
-----------------
  Iteration   0: MaxR=  0.088931858
  Iteration   1: MaxR=  0.042352761
  Iteration   2: MaxR=  0.011906275
  Iteration   3: MaxR=  0.004764252
  Iteration   4: MaxR=  0.002132269
  Iteration   5: MaxR=  0.000826855
  Iteration   6: MaxR=  0.000331669
  Iteration   7: MaxR=  0.000097825
  Iteration   8: MaxR=  0.000035457
  Iteration   9: MaxR=  0.000009361
  Iteration  10: MaxR=  0.000003457
  Iteration  11: MaxR=  0.000001310
  Iteration  12: MaxR=  0.000000584
  Iteration  13: MaxR=  0.000000166
  Iteration  14: MaxR=  0.000000058
  Iteration  15: MaxR=  0.000000022
  Iteration  16: MaxR=  0.000000008
                              *** THE CP-SCF HAS CONVERGED *** 
done
Finalizing the relaxed density                   ... done
Transforming P to the AO basis                   ... done
Storing the relaxed density                      ... done

------------------------------------
ENERGY WEIGHTED DENSITY FINALIZATION
------------------------------------

Gathering the parts of the W-matrix              ... done
Forming the Z-density                            ... done
Transforming Z to the AO basis                   ... done
Calculating G(Z)                                 ... done
Finalizing the W-matrix                          ... done
Transforming W to the AO basis and storing       ... done
Entering the RIJONX and RIJCOSX sections
Starting the three-index derivative integrals:
Operator 0  - Memory available             ...  1000 MB
Operator 0  - Memory needed per MO         ...   1.0 MB
Operator 0  - Number of orbitals per batch ... 46
Operator 0  - Number of batches            ... 1

OPERATOR  0   PASS   0:  MOs     0 ...   45

----------------------------------
MP2 DERIVATIVE INTEGRAL GENERATION
----------------------------------


Input Correlated Electron Density   ... PbMACl3_mp2_md2_18.orca.pmp2re
Input Energy Weighted Density       ... PbMACl3_mp2_md2_18.orca.wmp2.tmp
Input SCF Electron Density          ... PbMACl3_mp2_md2_18.orca.scfp.tmp

One-Electron Terms    ...
  ECP gradient                                           ... One-Electron Terms done

-----------------------------------------------------------
MP2 COSX Grid Generation
-----------------------------------------------------------

General Integration Accuracy     IntAcc      ...  4.340
Radial Grid Type                 RadialGrid  ... Gauss-Chebyshev
Angular Grid (max. acc.)         AngularGrid ... Lebedev-302
Angular grid pruning method      GridPruning ... 3 (G Style)
Weight generation scheme         WeightScheme... Becke
Basis function cutoff            BFCut       ...    1.0000e-11
Integration weight cutoff        WCut        ...    1.0000e-14
Grids for H and He will be reduced by one unit

# of grid points (after initial pruning)     ...  57718 (   0.0 sec)
# of grid points (after weights+screening)   ...  54284 (   0.1 sec)
nearest neighbour list constructed           ...    0.0 sec
Grid point re-assignment to atoms done       ...    0.0 sec
Grid point division into batches done        ...    0.2 sec
Reduced shell lists constructed in    1.5 sec

Total number of grid points                  ...    54284
Total number of batches                      ...      853
Average number of points per batch           ...       63
Average number of grid points per atom       ...     4524
Average number of shells per batch           ...    57.71 (57.13%)
Average number of basis functions per batch  ...   153.38 (59.22%)
Average number of large shells per batch     ...    43.94 (76.14%)
Average number of large basis fcns per batch ...   113.77 (74.17%)
Maximum spatial batch extension              ...  35.78, 33.95, 33.21 au
Average spatial batch extension              ...   2.99,  3.04,  3.05 au

Overlap Fitting                  UseSFitting ... on
Two electron COSX terms .... 
Integration Timings:
Total Time                  =    90.6 sec
Basis fcn evaluation        =     0.7 sec
Density evaluation          =     1.0 sec
Integral evaluation         =    87.1 sec
K(P) evaluation             =     0.7 sec
                          .... COSX two electron terms done
COSX two-electron contribution to the gradient
     0:    -0.018536    -0.023857    -0.021606
     1:     0.054163     0.067194     0.046488
     2:     0.100278    -0.081751     0.107548
     3:    -0.104318     0.097777     0.089427
     4:     0.095999     0.099589    -0.097187
     5:    -0.108451    -0.112545     0.095412
     6:     0.092630    -0.107486    -0.096630
     7:    -0.105952     0.066222    -0.114966
     8:    -0.022588    -0.030363    -0.040233
     9:     0.066040    -0.013168    -0.020594
    10:    -0.027774     0.063673    -0.015894
    11:    -0.021170    -0.024911     0.067745
Exchange-correlation gradient    ... done
Dispersion correction            ... 
Entering the calculation of the dispersion correction...

Checking the input atom types...

Done
done

                *********************************************
                * UNRELAXED MP2 DENSITY POPULATION ANALYSIS *
                *********************************************

------------------------------------------------------------------------------
                           ORCA POPULATION ANALYSIS
------------------------------------------------------------------------------
Input electron density              ... PbMACl3_mp2_md2_18.orca.pmp2ur
BaseName (.gbw .S,...)              ... PbMACl3_mp2_md2_18.orca

                    ********************************
                    * MULLIKEN POPULATION ANALYSIS *
                    ********************************

-----------------------
MULLIKEN ATOMIC CHARGES
-----------------------
   0 C :   -0.265908
   1 N :   -0.329379
   2 H :    0.159638
   3 H :    0.161218
   4 H :    0.161093
   5 H :    0.289601
   6 H :    0.297394
   7 H :    0.294611
   8 Pb:    0.761418
   9 Cl:   -0.511428
  10 Cl:   -0.511218
  11 Cl:   -0.507042
Sum of atomic charges:   -0.0000000

--------------------------------
MULLIKEN REDUCED ORBITAL CHARGES
--------------------------------
  0 C s       :     3.280081  s :     3.280081
      pz      :     0.976573  p :     2.901051
      px      :     0.990109
      py      :     0.934369
      dz2     :     0.008845  d :     0.077476
      dxz     :     0.019769
      dyz     :     0.019547
      dx2y2   :     0.009577
      dxy     :     0.019738
      f0      :     0.000517  f :     0.007299
      f+1     :     0.000682
      f-1     :     0.000908
      f+2     :     0.000949
      f-2     :     0.002770
      f+3     :     0.000684
      f-3     :     0.000788
  1 N s       :     3.426166  s :     3.426166
      pz      :     1.282112  p :     3.842367
      px      :     1.287286
      py      :     1.272969
      dz2     :     0.007680  d :     0.057659
      dxz     :     0.014400
      dyz     :     0.013607
      dx2y2   :     0.008205
      dxy     :     0.013767
      f0      :     0.000256  f :     0.003187
      f+1     :     0.000313
      f-1     :     0.000349
      f+2     :     0.000370
      f-2     :     0.001270
      f+3     :     0.000309
      f-3     :     0.000320
  2 H s       :     0.817610  s :     0.817610
      pz      :     0.008629  p :     0.022752
      px      :     0.008115
      py      :     0.006008
  3 H s       :     0.816012  s :     0.816012
      pz      :     0.007251  p :     0.022770
      px      :     0.007696
      py      :     0.007823
  4 H s       :     0.816124  s :     0.816124
      pz      :     0.007125  p :     0.022784
      px      :     0.007741
      py      :     0.007918
  5 H s       :     0.669750  s :     0.669750
      pz      :     0.010020  p :     0.040649
      px      :     0.014598
      py      :     0.016031
  6 H s       :     0.655940  s :     0.655940
      pz      :     0.017561  p :     0.046666
      px      :     0.011482
      py      :     0.017624
  7 H s       :     0.658413  s :     0.658413
      pz      :     0.018502  p :     0.046976
      px      :     0.019290
      py      :     0.009184
  8 Pbs       :     3.907651  s :     3.907651
      pz      :     2.380845  p :     7.091871
      px      :     2.349689
      py      :     2.361338
      dz2     :     2.025419  d :    10.129239
      dxz     :     2.027135
      dyz     :     2.026423
      dx2y2   :     2.024505
      dxy     :     2.025757
      f0      :     0.020494  f :     0.109820
      f+1     :     0.016291
      f-1     :     0.016268
      f+2     :     0.012827
      f-2     :     0.007942
      f+3     :     0.018362
      f-3     :     0.017636
  9 Cls       :     5.948360  s :     5.948360
      pz      :     3.884092  p :    11.497210
      px      :     3.711907
      py      :     3.901212
      dz2     :     0.011506  d :     0.062080
      dxz     :     0.011826
      dyz     :     0.010828
      dx2y2   :     0.016606
      dxy     :     0.011314
      f0      :     0.000464  f :     0.003777
      f+1     :     0.000576
      f-1     :     0.000480
      f+2     :     0.000566
      f-2     :     0.000450
      f+3     :     0.000693
      f-3     :     0.000548
 10 Cls       :     5.948717  s :     5.948717
      pz      :     3.903966  p :    11.497100
      px      :     3.872442
      py      :     3.720693
      dz2     :     0.011048  d :     0.061652
      dxz     :     0.011214
      dyz     :     0.010973
      dx2y2   :     0.016260
      dxy     :     0.012157
      f0      :     0.000485  f :     0.003750
      f+1     :     0.000460
      f-1     :     0.000561
      f+2     :     0.000551
      f-2     :     0.000456
      f+3     :     0.000608
      f-3     :     0.000630
 11 Cls       :     5.947807  s :     5.947807
      pz      :     3.719971  p :    11.494918
      px      :     3.894322
      py      :     3.880626
      dz2     :     0.018441  d :     0.060581
      dxz     :     0.011545
      dyz     :     0.011901
      dx2y2   :     0.008653
      dxy     :     0.010041
      f0      :     0.000799  f :     0.003736
      f+1     :     0.000604
      f-1     :     0.000625
      f+2     :     0.000430
      f-2     :     0.000453
      f+3     :     0.000422
      f-3     :     0.000401


                     *******************************
                     * LOEWDIN POPULATION ANALYSIS *
                     *******************************

----------------------
LOEWDIN ATOMIC CHARGES
----------------------
   0 C :   -0.276595
   1 N :    0.067467
   2 H :    0.126097
   3 H :    0.126848
   4 H :    0.127162
   5 H :    0.171837
   6 H :    0.146368
   7 H :    0.144048
   8 Pb:   -0.125670
   9 Cl:   -0.166394
  10 Cl:   -0.173156
  11 Cl:   -0.168013

-------------------------------
LOEWDIN REDUCED ORBITAL CHARGES
-------------------------------
  0 C s       :     2.852462  s :     2.852462
      pz      :     1.029757  p :     3.072748
      px      :     1.039433
      py      :     1.003558
      dz2     :     0.030758  d :     0.312526
      dxz     :     0.080903
      dyz     :     0.083766
      dx2y2   :     0.034550
      dxy     :     0.082549
      f0      :     0.005479  f :     0.038859
      f+1     :     0.004157
      f-1     :     0.005951
      f+2     :     0.004605
      f-2     :     0.007475
      f+3     :     0.005137
      f-3     :     0.006055
  1 N s       :     3.000224  s :     3.000224
      pz      :     1.250034  p :     3.750536
      px      :     1.252743
      py      :     1.247760
      dz2     :     0.019285  d :     0.170919
      dxz     :     0.044427
      dyz     :     0.042989
      dx2y2   :     0.020947
      dxy     :     0.043270
      f0      :     0.001627  f :     0.010852
      f+1     :     0.001303
      f-1     :     0.001584
      f+2     :     0.001207
      f-2     :     0.002034
      f+3     :     0.001418
      f-3     :     0.001679
  2 H s       :     0.809843  s :     0.809843
      pz      :     0.023514  p :     0.064060
      px      :     0.022308
      py      :     0.018238
  3 H s       :     0.809012  s :     0.809012
      pz      :     0.019976  p :     0.064140
      px      :     0.022960
      py      :     0.021204
  4 H s       :     0.808721  s :     0.808721
      pz      :     0.021394  p :     0.064118
      px      :     0.021328
      py      :     0.021397
  5 H s       :     0.706783  s :     0.706783
      pz      :     0.032945  p :     0.121381
      px      :     0.042667
      py      :     0.045769
  6 H s       :     0.709645  s :     0.709645
      pz      :     0.052318  p :     0.143987
      px      :     0.038427
      py      :     0.053241
  7 H s       :     0.710770  s :     0.710770
      pz      :     0.056757  p :     0.145181
      px      :     0.058539
      py      :     0.029886
  8 Pbs       :     3.669858  s :     3.669858
      pz      :     2.541599  p :     7.559102
      px      :     2.507333
      py      :     2.510170
      dz2     :     2.159693  d :    10.637062
      dxz     :     2.106700
      dyz     :     2.103489
      dx2y2   :     2.162692
      dxy     :     2.104487
      f0      :     0.052029  f :     0.259648
      f+1     :     0.039213
      f-1     :     0.040228
      f+2     :     0.024506
      f-2     :     0.013714
      f+3     :     0.050269
      f-3     :     0.039688
  9 Cls       :     5.727180  s :     5.727180
      pz      :     3.822784  p :    11.351457
      px      :     3.691061
      py      :     3.837611
      dz2     :     0.016222  d :     0.082413
      dxz     :     0.011841
      dyz     :     0.012956
      dx2y2   :     0.030255
      dxy     :     0.011139
      f0      :     0.000499  f :     0.005344
      f+1     :     0.001000
      f-1     :     0.000621
      f+2     :     0.000730
      f-2     :     0.000470
      f+3     :     0.001423
      f-3     :     0.000601
 10 Cls       :     5.730969  s :     5.730969
      pz      :     3.842531  p :    11.355970
      px      :     3.812598
      py      :     3.700841
      dz2     :     0.015252  d :     0.080983
      dxz     :     0.013209
      dyz     :     0.010856
      dx2y2   :     0.028237
      dxy     :     0.013428
      f0      :     0.000517  f :     0.005235
      f+1     :     0.000542
      f-1     :     0.000957
      f+2     :     0.000738
      f-2     :     0.000464
      f+3     :     0.000900
      f-3     :     0.001116
 11 Cls       :     5.727329  s :     5.727329
      pz      :     3.697830  p :    11.356036
      px      :     3.835614
      py      :     3.822592
      dz2     :     0.035368  d :     0.079458
      dxz     :     0.012026
      dyz     :     0.012761
      dx2y2   :     0.008551
      dxy     :     0.010752
      f0      :     0.001768  f :     0.005190
      f+1     :     0.000778
      f-1     :     0.000868
      f+2     :     0.000431
      f-2     :     0.000465
      f+3     :     0.000466
      f-3     :     0.000413


                      *****************************
                      * MAYER POPULATION ANALYSIS *
                      *****************************

  NA   - Mulliken gross atomic population
  ZA   - Total nuclear charge
  QA   - Mulliken gross atomic charge
  VA   - Mayer's total valence
  BVA  - Mayer's bonded valence
  FA   - Mayer's free valence

  ATOM       NA         ZA         QA         VA         BVA        FA
  0 C      6.2659     6.0000    -0.2659     3.8864     3.7714     0.1149
  1 N      7.3294     7.0000    -0.3294     3.3584     3.2122     0.1462
  2 H      0.8404     1.0000     0.1596     0.9645     0.9460     0.0184
  3 H      0.8388     1.0000     0.1612     0.9651     0.9467     0.0184
  4 H      0.8389     1.0000     0.1611     0.9658     0.9474     0.0184
  5 H      0.7104     1.0000     0.2896     0.9650     0.9440     0.0210
  6 H      0.7026     1.0000     0.2974     0.9683     0.9476     0.0207
  7 H      0.7054     1.0000     0.2946     0.9707     0.9499     0.0209
  8 Pb    21.2386    22.0000     0.7614     2.3154     1.9485     0.3669
  9 Cl    17.5114    17.0000    -0.5114     1.0583     0.7982     0.2600
 10 Cl    17.5112    17.0000    -0.5112     1.0588     0.7988     0.2601
 11 Cl    17.5070    17.0000    -0.5070     1.0629     0.8026     0.2603

  Mayer bond orders larger than 0.1
B(  0-C ,  1-N ) :   0.8772 B(  0-C ,  2-H ) :   0.9554 B(  0-C ,  3-H ) :   0.9550 
B(  0-C ,  4-H ) :   0.9552 B(  1-N ,  5-H ) :   0.8122 B(  1-N ,  6-H ) :   0.7813 
B(  1-N ,  7-H ) :   0.7800 B(  5-H , 11-Cl) :   0.1318 B(  6-H ,  9-Cl) :   0.1711 
B(  7-H , 10-Cl) :   0.1789 B(  8-Pb,  9-Cl) :   0.6254 B(  8-Pb, 10-Cl) :   0.6238 
B(  8-Pb, 11-Cl) :   0.6717 


                *******************************************
                * RELAXED MP2 DENSITY POPULATION ANALYSIS *
                *******************************************

------------------------------------------------------------------------------
                           ORCA POPULATION ANALYSIS
------------------------------------------------------------------------------
Input electron density              ... PbMACl3_mp2_md2_18.orca.pmp2re
BaseName (.gbw .S,...)              ... PbMACl3_mp2_md2_18.orca

                    ********************************
                    * MULLIKEN POPULATION ANALYSIS *
                    ********************************

-----------------------
MULLIKEN ATOMIC CHARGES
-----------------------
   0 C :   -0.283920
   1 N :   -0.323592
   2 H :    0.163155
   3 H :    0.164671
   4 H :    0.164583
   5 H :    0.283666
   6 H :    0.290666
   7 H :    0.288327
   8 Pb:    0.709399
   9 Cl:   -0.487217
  10 Cl:   -0.487017
  11 Cl:   -0.482722
Sum of atomic charges:   -0.0000000

--------------------------------
MULLIKEN REDUCED ORBITAL CHARGES
--------------------------------
  0 C s       :     3.282754  s :     3.282754
      pz      :     0.983122  p :     2.920774
      px      :     0.996309
      py      :     0.941344
      dz2     :     0.009036  d :     0.073257
      dxz     :     0.018206
      dyz     :     0.018024
      dx2y2   :     0.009774
      dxy     :     0.018217
      f0      :     0.000499  f :     0.007135
      f+1     :     0.000674
      f-1     :     0.000894
      f+2     :     0.000941
      f-2     :     0.002687
      f+3     :     0.000668
      f-3     :     0.000772
  1 N s       :     3.427232  s :     3.427232
      pz      :     1.280255  p :     3.836742
      px      :     1.285917
      py      :     1.270571
      dz2     :     0.007835  d :     0.056481
      dxz     :     0.013924
      dyz     :     0.013121
      dx2y2   :     0.008371
      dxy     :     0.013230
      f0      :     0.000253  f :     0.003137
      f+1     :     0.000313
      f-1     :     0.000350
      f+2     :     0.000369
      f-2     :     0.001226
      f+3     :     0.000306
      f-3     :     0.000321
  2 H s       :     0.814467  s :     0.814467
      pz      :     0.008448  p :     0.022377
      px      :     0.007967
      py      :     0.005962
  3 H s       :     0.812935  s :     0.812935
      pz      :     0.007152  p :     0.022394
      px      :     0.007555
      py      :     0.007687
  4 H s       :     0.813012  s :     0.813012
      pz      :     0.007017  p :     0.022406
      px      :     0.007614
      py      :     0.007775
  5 H s       :     0.676085  s :     0.676085
      pz      :     0.009924  p :     0.040249
      px      :     0.014459
      py      :     0.015865
  6 H s       :     0.663111  s :     0.663111
      pz      :     0.017408  p :     0.046223
      px      :     0.011371
      py      :     0.017443
  7 H s       :     0.665152  s :     0.665152
      pz      :     0.018289  p :     0.046521
      px      :     0.019082
      py      :     0.009150
  8 Pbs       :     3.923235  s :     3.923235
      pz      :     2.390903  p :     7.130884
      px      :     2.365264
      py      :     2.374717
      dz2     :     2.023151  d :    10.128339
      dxz     :     2.028438
      dyz     :     2.027520
      dx2y2   :     2.022274
      dxy     :     2.026955
      f0      :     0.020067  f :     0.108144
      f+1     :     0.016038
      f-1     :     0.015993
      f+2     :     0.012779
      f-2     :     0.007933
      f+3     :     0.017949
      f-3     :     0.017385
  9 Cls       :     5.948849  s :     5.948849
      pz      :     3.875490  p :    11.472370
      px      :     3.703284
      py      :     3.893597
      dz2     :     0.011524  d :     0.062201
      dxz     :     0.011788
      dyz     :     0.010985
      dx2y2   :     0.016570
      dxy     :     0.011335
      f0      :     0.000465  f :     0.003797
      f+1     :     0.000576
      f-1     :     0.000486
      f+2     :     0.000573
      f-2     :     0.000452
      f+3     :     0.000691
      f-3     :     0.000554
 10 Cls       :     5.949215  s :     5.949215
      pz      :     3.896709  p :    11.472273
      px      :     3.863616
      py      :     3.711949
      dz2     :     0.011025  d :     0.061757
      dxz     :     0.011364
      dyz     :     0.010978
      dx2y2   :     0.016337
      dxy     :     0.012053
      f0      :     0.000488  f :     0.003771
      f+1     :     0.000463
      f-1     :     0.000560
      f+2     :     0.000559
      f-2     :     0.000458
      f+3     :     0.000611
      f-3     :     0.000632
 11 Cls       :     5.948398  s :     5.948398
      pz      :     3.711423  p :    11.470026
      px      :     3.886666
      py      :     3.871937
      dz2     :     0.018478  d :     0.060548
      dxz     :     0.011490
      dyz     :     0.011818
      dx2y2   :     0.008660
      dxy     :     0.010102
      f0      :     0.000799  f :     0.003750
      f+1     :     0.000609
      f-1     :     0.000629
      f+2     :     0.000432
      f-2     :     0.000454
      f+3     :     0.000426
      f-3     :     0.000402


                     *******************************
                     * LOEWDIN POPULATION ANALYSIS *
                     *******************************

----------------------
LOEWDIN ATOMIC CHARGES
----------------------
   0 C :   -0.286575
   1 N :    0.063567
   2 H :    0.128048
   3 H :    0.128763
   4 H :    0.129087
   5 H :    0.170612
   6 H :    0.144840
   7 H :    0.142604
   8 Pb:   -0.150727
   9 Cl:   -0.154055
  10 Cl:   -0.160725
  11 Cl:   -0.155438

-------------------------------
LOEWDIN REDUCED ORBITAL CHARGES
-------------------------------
  0 C s       :     2.853778  s :     2.853778
      pz      :     1.034187  p :     3.086082
      px      :     1.043749
      py      :     1.008146
      dz2     :     0.030988  d :     0.308092
      dxz     :     0.079325
      dyz     :     0.082096
      dx2y2   :     0.034802
      dxy     :     0.080880
      f0      :     0.005461  f :     0.038624
      f+1     :     0.004136
      f-1     :     0.005933
      f+2     :     0.004572
      f-2     :     0.007373
      f+3     :     0.005107
      f-3     :     0.006043
  1 N s       :     3.002300  s :     3.002300
      pz      :     1.250530  p :     3.752009
      px      :     1.253507
      py      :     1.247971
      dz2     :     0.019529  d :     0.171190
      dxz     :     0.044363
      dyz     :     0.042917
      dx2y2   :     0.021210
      dxy     :     0.043171
      f0      :     0.001645  f :     0.010934
      f+1     :     0.001310
      f-1     :     0.001595
      f+2     :     0.001208
      f-2     :     0.002054
      f+3     :     0.001429
      f-3     :     0.001694
  2 H s       :     0.807813  s :     0.807813
      pz      :     0.023495  p :     0.064139
      px      :     0.022312
      py      :     0.018332
  3 H s       :     0.807022  s :     0.807022
      pz      :     0.020019  p :     0.064215
      px      :     0.022969
      py      :     0.021227
  4 H s       :     0.806731  s :     0.806731
      pz      :     0.021431  p :     0.064183
      px      :     0.021343
      py      :     0.021408
  5 H s       :     0.708079  s :     0.708079
      pz      :     0.032882  p :     0.121309
      px      :     0.042669
      py      :     0.045757
  6 H s       :     0.711379  s :     0.711379
      pz      :     0.052246  p :     0.143781
      px      :     0.038361
      py      :     0.053174
  7 H s       :     0.712394  s :     0.712394
      pz      :     0.056688  p :     0.145002
      px      :     0.058448
      py      :     0.029866
  8 Pbs       :     3.683477  s :     3.683477
      pz      :     2.545765  p :     7.579519
      px      :     2.516492
      py      :     2.517263
      dz2     :     2.156062  d :    10.630325
      dxz     :     2.106928
      dyz     :     2.103521
      dx2y2   :     2.159157
      dxy     :     2.104657
      f0      :     0.051558  f :     0.257406
      f+1     :     0.038867
      f-1     :     0.039886
      f+2     :     0.024333
      f-2     :     0.013633
      f+3     :     0.049798
      f-3     :     0.039332
  9 Cls       :     5.730476  s :     5.730476
      pz      :     3.816642  p :    11.334527
      px      :     3.685885
      py      :     3.832001
      dz2     :     0.016440  d :     0.083612
      dxz     :     0.011935
      dyz     :     0.013158
      dx2y2   :     0.030832
      dxy     :     0.011247
      f0      :     0.000505  f :     0.005440
      f+1     :     0.001019
      f-1     :     0.000628
      f+2     :     0.000745
      f-2     :     0.000472
      f+3     :     0.001458
      f-3     :     0.000613
 10 Cls       :     5.734269  s :     5.734269
      pz      :     3.837120  p :    11.338985
      px      :     3.806343
      py      :     3.695522
      dz2     :     0.015428  d :     0.082143
      dxz     :     0.013411
      dyz     :     0.010946
      dx2y2   :     0.028800
      dxy     :     0.013558
      f0      :     0.000524  f :     0.005327
      f+1     :     0.000548
      f-1     :     0.000976
      f+2     :     0.000751
      f-2     :     0.000466
      f+3     :     0.000925
      f-3     :     0.001138
 11 Cls       :     5.730633  s :     5.730633
      pz      :     3.692747  p :    11.338927
      px      :     3.829928
      py      :     3.816252
      dz2     :     0.036118  d :     0.080590
      dxz     :     0.012156
      dyz     :     0.012893
      dx2y2   :     0.008567
      dxy     :     0.010856
      f0      :     0.001807  f :     0.005287
      f+1     :     0.000800
      f-1     :     0.000894
      f+2     :     0.000434
      f-2     :     0.000468
      f+3     :     0.000469
      f-3     :     0.000415


                      *****************************
                      * MAYER POPULATION ANALYSIS *
                      *****************************

  NA   - Mulliken gross atomic population
  ZA   - Total nuclear charge
  QA   - Mulliken gross atomic charge
  VA   - Mayer's total valence
  BVA  - Mayer's bonded valence
  FA   - Mayer's free valence

  ATOM       NA         ZA         QA         VA         BVA        FA
  0 C      6.2839     6.0000    -0.2839     3.8886     3.7740     0.1146
  1 N      7.3236     7.0000    -0.3236     3.3678     3.2221     0.1457
  2 H      0.8368     1.0000     0.1632     0.9634     0.9451     0.0183
  3 H      0.8353     1.0000     0.1647     0.9641     0.9457     0.0184
  4 H      0.8354     1.0000     0.1646     0.9648     0.9465     0.0183
  5 H      0.7163     1.0000     0.2837     0.9709     0.9500     0.0209
  6 H      0.7093     1.0000     0.2907     0.9743     0.9538     0.0206
  7 H      0.7117     1.0000     0.2883     0.9763     0.9555     0.0208
  8 Pb    21.2906    22.0000     0.7094     2.3940     2.0324     0.3616
  9 Cl    17.4872    17.0000    -0.4872     1.1019     0.8432     0.2587
 10 Cl    17.4870    17.0000    -0.4870     1.1023     0.8436     0.2587
 11 Cl    17.4827    17.0000    -0.4827     1.1063     0.8474     0.2589

  Mayer bond orders larger than 0.1
B(  0-C ,  1-N ) :   0.8854 B(  0-C ,  2-H ) :   0.9526 B(  0-C ,  3-H ) :   0.9522 
B(  0-C ,  4-H ) :   0.9524 B(  1-N ,  5-H ) :   0.8087 B(  1-N ,  6-H ) :   0.7774 
B(  1-N ,  7-H ) :   0.7758 B(  5-H , 11-Cl) :   0.1416 B(  6-H ,  9-Cl) :   0.1816 
B(  7-H , 10-Cl) :   0.1896 B(  8-Pb,  9-Cl) :   0.6513 B(  8-Pb, 10-Cl) :   0.6494 
B(  8-Pb, 11-Cl) :   0.6997 


-------
TIMINGS
-------

Total time                :  495.940 sec
Integral trafo            :    2.221 sec (  0.4%)
I/O of integrals          :    0.179 sec (  0.0%)
K(i,j) Operators          :    6.286 sec (  1.3%)
T(i,j) pair energies      :    1.159 sec (  0.2%)
V-calculation             :    0.012 sec (  0.0%)
V**(-1/2)                 :    0.026 sec (  0.0%)
Gamma(ia|P)               :    5.601 sec (  1.1%)
Gamma-Trafo               :    0.755 sec (  0.2%)
D(virtual)                :    2.458 sec (  0.5%)
D(internal)               :    4.181 sec (  0.8%)
W(virtual)                :    5.044 sec (  1.0%)
W(internal)               :   14.143 sec (  2.9%)
L(virtual)                :    5.473 sec (  1.1%)
L(internal)               :    0.206 sec (  0.0%)
G(D)                      :   14.962 sec (  3.0%)
G(Z)                      :   14.776 sec (  3.0%)
Z-Vector Solution         :  306.818 sec ( 61.9%)
Z-Vector Solution         :  306.818 sec ( 61.9%)
3-Index Derivative 
+ Separable RIJ part      :    4.314 sec (  0.9%)
2-Index Derivative 
+ Separable RIJ part      :    0.027 sec (  0.0%)
Separable Gradient (COSX) :  105.722 sec ( 21.3%)


---------------------------------------
MP2 TOTAL ENERGY:    -1669.603424958 Eh
---------------------------------------

The final MP2 gradient
  0:   0.00037712   0.00012153  -0.00109624
  1:  -0.00037503   0.00230425  -0.01394682
  2:   0.00260623  -0.00223539   0.00303263
  3:  -0.00280588   0.00245643   0.00266405
  4:   0.00292753   0.00317853  -0.00213896
  5:  -0.00765897  -0.00798804  -0.00134724
  6:  -0.00614626  -0.00501603  -0.00405714
  7:  -0.00171384  -0.00914376  -0.00437485
  8:   0.03585065   0.03804092   0.04295769
  9:  -0.02322397   0.00031420   0.00100582
 10:   0.00294801  -0.01981035   0.00028412
 11:  -0.00244693  -0.00189901  -0.02344290

-----------------------------------
NORM OF THE MP2 GRADIENT:  0.081575
-----------------------------------

Entering the calculation of the dispersion correction...

Checking the input atom types...

Done


-------------------------------------------------------------------------------
                          DFT DISPERSION CORRECTION                            
                                                                               
                                DFTD3 V2.1  Rev 6                               
                          USING Becke-Johnson damping                          
-------------------------------------------------------------------------------
The B2PLYP functional is recognized
Active option DFTDOPT                   ...         4   

molecular C6(AA) [au] = 4847.810249 


            DFT-D V3
 parameters
 s6 scaling factor         :     0.6400 
 a1 scaling factor         :     0.3065 
 s8 scaling factor         :     0.9147 
 a2 scaling factor         :     5.0570 
 ad hoc parameters k1-k3   :    16.0000     1.3333    -4.0000 

 Edisp/kcal,au: -8.971421567577  -0.014296868783 
 E6   /kcal   :  -4.112675979 
 E8   /kcal   :  -4.858745589 
 % E8         :  54.158034513 

-------------------------   ----------------
Dispersion correction           -0.014296869
-------------------------   ----------------


-------------------------   --------------------
FINAL SINGLE POINT ENERGY     -1669.617721826379
-------------------------   --------------------


                            ***************************************
                            *     ORCA property calculations      *
                            ***************************************


  WARNING: The energy has been calculated at the MP2 level but the densities
           used in the property calculations are still SCF densities
           MP2 response densities have not been calculated 
           use %mp2 Density relaxed end
           or  %mp2 Density unrelaxed end

                                    ---------------------
                                    Active property flags
                                    ---------------------
   (+) Dipole Moment


------------------------------------------------------------------------------
                       ORCA ELECTRIC PROPERTIES CALCULATION
------------------------------------------------------------------------------

Dipole Moment Calculation                       ... on
Quadrupole Moment Calculation                   ... off
Polarizability Calculation                      ... off
GBWName                                         ... PbMACl3_mp2_md2_18.orca.gbw
Electron density file                           ... PbMACl3_mp2_md2_18.orca.scfp.tmp

-------------
DIPOLE MOMENT
-------------
                                X             Y             Z
Electronic contribution:    -59.01134     -70.42045     -68.50936
Nuclear contribution   :     60.03973      71.51304      69.48154
                        -----------------------------------------
Total Dipole Moment    :      1.02839       1.09259       0.97219
                        -----------------------------------------
Magnitude (a.u.)       :      1.78787
Magnitude (Debye)      :      4.54441


                         *** MP2 UNRELAXED DENSITY ***

------------------------------------------------------------------------------
                       ORCA ELECTRIC PROPERTIES CALCULATION
------------------------------------------------------------------------------

Dipole Moment Calculation                       ... on
Quadrupole Moment Calculation                   ... off
Polarizability Calculation                      ... off
GBWName                                         ... PbMACl3_mp2_md2_18.orca.gbw
Electron density file                           ... PbMACl3_mp2_md2_18.orca.pmp2ur

-------------
DIPOLE MOMENT
-------------
                                X             Y             Z
Electronic contribution:    -59.01117     -70.41881     -68.50687
Nuclear contribution   :     60.03973      71.51304      69.48154
                        -----------------------------------------
Total Dipole Moment    :      1.02857       1.09423       0.97467
                        -----------------------------------------
Magnitude (a.u.)       :      1.79033
Magnitude (Debye)      :      4.55066


                           *** MP2 RELAXED DENSITY ***

------------------------------------------------------------------------------
                       ORCA ELECTRIC PROPERTIES CALCULATION
------------------------------------------------------------------------------

Dipole Moment Calculation                       ... on
Quadrupole Moment Calculation                   ... off
Polarizability Calculation                      ... off
GBWName                                         ... PbMACl3_mp2_md2_18.orca.gbw
Electron density file                           ... PbMACl3_mp2_md2_18.orca.pmp2re

-------------
DIPOLE MOMENT
-------------
                                X             Y             Z
Electronic contribution:    -59.04616     -70.45574     -68.54293
Nuclear contribution   :     60.03973      71.51304      69.48154
                        -----------------------------------------
Total Dipole Moment    :      0.99358       1.05730       0.93861
                        -----------------------------------------
Magnitude (a.u.)       :      1.72803
Magnitude (Debye)      :      4.39229


Timings for individual modules:

Sum of individual times         ...      792.517 sec (=  13.209 min)
GTO integral calculation        ...        0.597 sec (=   0.010 min)   0.1 %
SCF iterations                  ...      295.808 sec (=   4.930 min)  37.3 %
MP2 module                      ...      496.111 sec (=   8.269 min)  62.6 %
                             ****ORCA TERMINATED NORMALLY****
TOTAL RUN TIME: 0 days 0 hours 13 minutes 13 seconds 44 msec
