
                                 *****************
                                 * O   R   C   A *
                                 *****************

           --- An Ab Initio, DFT and Semiempirical electronic structure package ---

                  #######################################################
                  #                        -***-                        #
                  #  Department of molecular theory and spectroscopy    #
                  #              Directorship: Frank Neese              #
                  # Max Planck Institute for Chemical Energy Conversion #
                  #                  D-45470 Muelheim/Ruhr              #
                  #                       Germany                       #
                  #                                                     #
                  #                  All rights reserved                #
                  #                        -***-                        #
                  #######################################################


                         Program Version 3.0.3 - RELEASE   -


 With contributions from (in alphabetic order):
   Ute Becker             : Parallelization
   Dmytro Bykov           : SCF Hessian
   Dmitry Ganyushin       : Spin-Orbit,Spin-Spin,Magnetic field MRCI
   Andreas Hansen         : Spin unrestricted coupled pair/coupled cluster methods
   Dimitrios Liakos       : Extrapolation schemes; parallel MDCI
   Robert Izsak           : Overlap fitted RIJCOSX, COSX-SCS-MP3
   Christian Kollmar      : KDIIS, OOCD, Brueckner-CCSD(T), CCSD density
   Simone Kossmann        : Meta GGA functionals, TD-DFT gradient, OOMP2, MP2 Hessian
   Taras Petrenko         : DFT Hessian,TD-DFT gradient, ASA and ECA modules, normal mode analysis, Resonance Raman, ABS, FL, XAS/XES, NRVS
   Christoph Reimann      : Effective Core Potentials
   Michael Roemelt        : Restricted open shell CIS
   Christoph Riplinger    : Improved optimizer, TS searches, QM/MM, DLPNO-CCSD
   Barbara Sandhoefer     : DKH picture change effects
   Igor Schapiro          : Molecular dynamics
   Kantharuban Sivalingam : CASSCF convergence, NEVPT2
   Boris Wezisla          : Elementary symmetry handling
   Frank Wennmohs         : Technical directorship


 We gratefully acknowledge several colleagues who have allowed us to
 interface, adapt or use parts of their codes:
   Stefan Grimme, W. Hujo, H. Kruse, T. Risthaus : VdW corrections, initial TS optimization,
                                                   DFT functionals, gCP
   Ed Valeev                                     : LibInt (2-el integral package), F12 methods
   Garnet Chan, S. Sharma, R. Olivares           : DMRG
   Ulf Ekstrom                                   : XCFun DFT Library
   Mihaly Kallay                                 : mrcc  (arbitrary order and MRCC methods)
   Andreas Klamt, Michael Diedenhofen            : otool_cosmo (COSMO solvation model)
   Frank Weinhold                                : gennbo (NPA and NBO analysis)
   Christopher J. Cramer and Donald G. Truhlar   : smd solvation model


 Your calculation uses the libint2 library for the computation of 2-el integrals
 For citations please refer to: http://libint.valeyev.net

 This ORCA versions uses:
   CBLAS   interface :  Fast vector & matrix operations
   LAPACKE interface :  Fast linear algebra routines
   SCALAPACK package :  Parallel linear algebra routines


Your calculation utilizes the basis: Ahlrichs-TZV
Cite in your paper:
H - Kr: A. Schaefer, H. Horn and R. Ahlrichs, J. Chem. Phys. 97, 2571 (1992).

The def2-TZV basis will be loaded
Cite in your paper:
 	F. Weigend, R. Ahlrichs, Phys. Chem. Chem. Phys. 2005, 7, 3297.

Your calculation utilizes the atom-pairwise dispersion correction
with the Becke-Johnson damping scheme (D3BJ)
Cite in your paper:
S.Grimme, S.Ehrlich, L.Goerigk, J Comput Chem, (2011), 32, 1456–1465 
S.Grimme, J.Antony, S.Ehrlich and H.Krieg, J.Chem.Phys., 132, (2010), 154104 
   

================================================================================
                                        WARNINGS
                       Please study these warnings very carefully!
================================================================================

WARNING: The RI method has been chosen with no auxiliary basis (AUX or GTOAUX in BASIS block)
        Standard TZV/J expansion basis used (GTOAUX=TZV_J)

Now building the actual basis set
cite the ECPs for Pb [SD(60,MDF)] as follows:
  B. Metz, H. Stoll, M. Dolg, J. Chem. Phys. 113, 2563 (2000).

ECP parameters for Pb [SD(60,MDF)] have been obtained from:
  pseudopotential library of the Stuttgart/Cologne group
  http://www.theochem.uni-stuttgart.de/pseudopotentials/

cite the ECP basis sets for Pb [DEF2-TZVP] as follows:
  F. Weigend, R. Ahlrichs; Phys. Chem. Chem. Phys. 7, 3297(2005).

ECP basis sets for Pb [DEF2-TZVP] have been obtained from:
  Turbomole basis set library
  ftp://ftp.chemie.uni-karlsruhe.de/pub/basen/



INFO   : the flag for use of LIBINT has been found!

================================================================================
                                       INPUT FILE
================================================================================
NAME = PbMACl3_mp2_8.orca
|  1> ! RIJCOSX RI-B2PLYP D3BJ def2-TZVP ECP{def2-TZVP} TIGHTSCF Grid5 FinalGrid6 SlowConv MORead
|  2> %method
|  3>  RunTyp Gradient
|  4>  end
|  5> %maxcore 1000
|  6> %moinp "previous.gbw"
|  7> *xyz 0 1
|  8> C 2.905719 3.576013 2.873338
|  9> N 2.134625 2.614408 2.046990
| 10> H 3.548796 3.021424 3.560517
| 11> H 2.209179 4.197444 3.440826
| 12> H 3.515705 4.204875 2.220874
| 13> H 1.516852 1.975028 2.601630
| 14> H 2.717740 1.973704 1.464858
| 15> H 1.486857 3.059076 1.361735
| 16> Pb -1.181988 0.131547 0.209487
| 17> Cl 2.230773 0.268387 0.089874
| 18> Cl 1.111769 2.735046 -0.108798
| 19> Cl 0.209916 0.320768 2.851419
| 20> *
| 21> 
| 22>                          ****END OF INPUT****
================================================================================

                     *******************************
                     * Energy+Gradient Calculation *
                     *******************************

---------------------------------
CARTESIAN COORDINATES (ANGSTROEM)
---------------------------------
  C      2.905719    3.576013    2.873338
  N      2.134625    2.614408    2.046990
  H      3.548796    3.021424    3.560517
  H      2.209179    4.197444    3.440826
  H      3.515705    4.204875    2.220874
  H      1.516852    1.975028    2.601630
  H      2.717740    1.973704    1.464858
  H      1.486857    3.059076    1.361735
  Pb    -1.181988    0.131547    0.209487
  Cl     2.230773    0.268387    0.089874
  Cl     1.111769    2.735046   -0.108798
  Cl     0.209916    0.320768    2.851419

----------------------------
CARTESIAN COORDINATES (A.U.)
----------------------------
  NO LB      ZA    FRAG    MASS        X           Y           Z
   0 C     6.0000    0    12.011          5.491013132131525          6.757685221342137          5.429821910189021
   1 N     7.0000    0    14.007          4.033856648621652          4.940515122332791          3.868250498875463
   2 H     1.0000    0     1.008          6.706252545155202          5.709663894456884          6.728402025170893
   3 H     1.0000    0     1.008          4.174743290810016          7.932019622470954          6.502218814475724
   4 H     1.0000    0     1.008          6.643719617657614          7.946062177372124          4.196843637946225
   5 H     1.0000    0     1.008          2.866434865690719          3.732262026826222          4.916368201793546
   6 H     1.0000    0     1.008          5.135784303203143          3.729760029424910          2.768180445083617
   7 H     1.0000    0     1.008          2.809752530303751          5.780815862851287          2.573306216975256
   8 Pb   22.0000*   0   207.200  -2.233633613581313  0.248587803738939  0.395873058616761
   9 Cl   17.0000    0    35.453          4.215550036945912          0.507177927904723          0.169837246560039
  10 Cl   17.0000    0    35.453          2.100938934183496          5.168487903676784         -0.205598423918364
  11 Cl   17.0000    0    35.453          0.396683751128213          0.606163672525652          5.388401003059601
* core charge reduced due to ECP

--------------------------------
INTERNAL COORDINATES (ANGSTROEM)
--------------------------------
 C      0   0   0   0.000000     0.000     0.000
 N      1   0   0   1.483955     0.000     0.000
 H      1   2   0   1.092397   109.099     0.000
 H      1   2   3   1.092423   109.061   240.173
 H      1   2   3   1.092364   109.305   120.114
 H      2   1   3   1.047891   114.015    60.210
 H      2   1   3   1.043744   114.712   299.789
 H      2   1   3   1.042549   114.361   179.707
 Pb     6   2   1   4.050248   110.974   165.142
 Cl     7   2   1   2.244064   133.392   176.949
 Cl     8   2   1   1.551823   133.155   139.650
 Cl     6   2   1   2.122982   154.244   188.322

---------------------------
INTERNAL COORDINATES (A.U.)
---------------------------
 C      0   0   0   0.000000     0.000     0.000
 N      1   0   0   2.804268     0.000     0.000
 H      1   2   0   2.064332   109.099     0.000
 H      1   2   3   2.064379   109.061   240.173
 H      1   2   3   2.064269   109.305   120.114
 H      2   1   3   1.980227   114.015    60.210
 H      2   1   3   1.972391   114.712   299.789
 H      2   1   3   1.970131   114.361   179.707
 Pb     6   2   1   7.653859   110.974   165.142
 Cl     7   2   1   4.240667   133.392   176.949
 Cl     8   2   1   2.932520   133.155   139.650
 Cl     6   2   1   4.011854   154.244   188.322

---------------------
BASIS SET INFORMATION
---------------------
There are 5 groups of distinct atoms

 Group   1 Type C   : 11s6p2d1f contracted to 5s3p2d1f pattern {62111/411/11/1}
 Group   2 Type N   : 11s6p2d1f contracted to 5s3p2d1f pattern {62111/411/11/1}
 Group   3 Type H   : 5s1p contracted to 3s1p pattern {311/1}
 Group   4 Type Pb  : 10s9p8d2f contracted to 6s5p3d2f pattern {421111/33111/611/11}
 Group   5 Type Cl  : 14s9p3d1f contracted to 5s5p2d1f pattern {73211/51111/21/1}

Atom   0C    basis set group =>   1
Atom   1N    basis set group =>   2
Atom   2H    basis set group =>   3
Atom   3H    basis set group =>   3
Atom   4H    basis set group =>   3
Atom   5H    basis set group =>   3
Atom   6H    basis set group =>   3
Atom   7H    basis set group =>   3
Atom   8Pb   basis set group =>   4
Atom   9Cl   basis set group =>   5
Atom  10Cl   basis set group =>   5
Atom  11Cl   basis set group =>   5
-------------------------------
AUXILIARY BASIS SET INFORMATION
-------------------------------
There are 5 groups of distinct atoms

 Group   1 Type C   : 12s5p4d2f1g contracted to 6s4p3d1f1g pattern {711111/2111/211/2/1}
 Group   2 Type N   : 12s5p4d2f1g contracted to 6s4p3d1f1g pattern {711111/2111/211/2/1}
 Group   3 Type H   : 5s2p1d contracted to 3s1p1d pattern {311/2/1}
 Group   4 Type Pb  : 31s12p8d6f3g contracted to 31s12p8d6f3g pattern {1111111111111111111111111111111/111111111111/11111111/111111/111}
 Group   5 Type Cl  : 14s5p5d2f1g contracted to 8s4p3d1f1g pattern {71111111/2111/311/2/1}

Atom   0C    basis set group =>   1
Atom   1N    basis set group =>   2
Atom   2H    basis set group =>   3
Atom   3H    basis set group =>   3
Atom   4H    basis set group =>   3
Atom   5H    basis set group =>   3
Atom   6H    basis set group =>   3
Atom   7H    basis set group =>   3
Atom   8Pb   basis set group =>   4
Atom   9Cl   basis set group =>   5
Atom  10Cl   basis set group =>   5
Atom  11Cl   basis set group =>   5

-------------------------
ECP PARAMETER INFORMATION
-------------------------

 Group 1, Type Pb ECP SD(60,MDF) (replacing 60 core electrons, lmax=5)

Atom   8Pb   ECP group =>   1


------------------------------------------------------------------------------
                           ORCA GTO INTEGRAL CALCULATION
                           -- RI-GTO INTEGRALS CHOSEN --
------------------------------------------------------------------------------

                         BASIS SET STATISTICS AND STARTUP INFO

Gaussian basis set:
 # of primitive gaussian shells          ...  186
 # of primitive gaussian functions       ...  420
 # of contracted shells                  ...  101
 # of contracted basis functions         ...  259
 Highest angular momentum                ...    3
 Maximum contraction depth               ...    7
Auxiliary gaussian basis set:
 # of primitive gaussian shells          ...  237
 # of primitive gaussian functions       ...  643
 # of contracted shells                  ...  171
 # of contracted aux-basis functions     ...  493
 Highest angular momentum                ...    4
 Maximum contraction depth               ...    7
Ratio of auxiliary to basis functions    ...  1.90
Integral package used                  ... LIBINT
 One Electron integrals                  
   ECP integrals                         ... done
 Ordering auxiliary basis shells         ... done
 Integral threshhold             Thresh  ...  2.500e-11
 Primitive cut-off               TCut    ...  2.500e-12
 Pre-screening matrix                    ... done
 Shell pair data                         ... 
 Ordering of the shell pairs             ... done (   0.001 sec) 4415 of 5151 pairs
 Determination of significant pairs      ... done (   0.000 sec)
 Creation of shell pair data             ... done (   0.001 sec)
 Storage of shell pair data              ... done (   0.001 sec)
 Shell pair data done in (   0.003 sec)
 Computing two index integrals           ... done
 Cholesky decomposition of the V-matrix  ... done


Timings:
 Total evaluation time                   ...   0.645 sec (  0.011 min)
 One electron matrix time                ...   0.293 sec (  0.005 min) = 45.4%
 Schwartz matrix evaluation time         ...   0.291 sec (  0.005 min) = 45.1%
 Two index repulsion integral time       ...   0.011 sec (  0.000 min) =  1.7%
 Cholesky decomposition of V             ...   0.011 sec (  0.000 min) =  1.7%
 Three index repulsion integral time     ...   0.000 sec (  0.000 min) =  0.0%

-------------------------------------------------------------------------------
                                 ORCA SCF
-------------------------------------------------------------------------------

------------
SCF SETTINGS
------------
Hamiltonian:
 Density Functional     Method          .... DFT(GTOs)
 Exchange Functional    Exchange        .... B88
   X-Alpha parameter    XAlpha          ....  0.666667
   Becke's b parameter  XBeta           ....  0.004200
 Correlation Functional Correlation     .... LYP
 LDA part of GGA corr.  LDAOpt          .... VWN-3
 Gradients option       PostSCFGGA      .... off
 Hybrid DFT is turned on
   Fraction HF Exchange ScalHFX         ....  0.530000
   Scaling of DF-GGA-X  ScalDFX         ....  0.470000
   Scaling of DF-GGA-C  ScalDFC         ....  0.730000
   Scaling of DF-LDA-C  ScalLDAC        ....  0.730000
   Perturbative correction              ....  0.270000
 RI-approximation to the Coulomb term is turned on
   Number of auxiliary basis functions  .... 493
   RIJ-COSX (HFX calculated with COS-X)).... on


General Settings:
 Integral files         IntName         .... PbMACl3_mp2_8.orca
 Hartree-Fock type      HFTyp           .... RHF
 Total Charge           Charge          ....    0
 Multiplicity           Mult            ....    1
 Number of Electrons    NEL             ....   92
 Basis Dimension        Dim             ....  259
 Nuclear Repulsion      ENuc            ....    569.7473783445 Eh

Convergence Acceleration:
 DIIS                   CNVDIIS         .... on
   Start iteration      DIISMaxIt       ....     0
   Startup error        DIISStart       ....  0.200000
   # of expansion vecs  DIISMaxEq       ....     5
   Bias factor          DIISBfac        ....   1.050
   Max. coefficient     DIISMaxC        ....  10.000
 Newton-Raphson         CNVNR           .... off
 SOSCF                  CNVSOSCF        .... on
   Start iteration      SOSCFMaxIt      ....   150
   Startup grad/error   SOSCFStart      ....  0.001000
 Level Shifting         CNVShift        .... on
   Level shift para.    LevelShift      ....    0.2500
   Turn off err/grad.   ShiftErr        ....    0.0000
 Zerner damping         CNVZerner       .... off
 Static damping         CNVDamp         .... on
   Fraction old density DampFac         ....    0.8500
   Max. Damping (<1)    DampMax         ....    0.9800
   Min. Damping (>=0)   DampMin         ....    0.0000
   Turn off err/grad.   DampErr         ....    0.0300
 Fernandez-Rico         CNVRico         .... off

SCF Procedure:
 Maximum # iterations   MaxIter         ....   125
 SCF integral mode      SCFMode         .... Direct
   Integral package                     .... LIBINT
 Reset frequeny         DirectResetFreq ....    20
 Integral Threshold     Thresh          ....  2.500e-11 Eh
 Primitive CutOff       TCut            ....  2.500e-12 Eh

Convergence Tolerance:
 Convergence Check Mode ConvCheckMode   .... Total+1el-Energy
 Energy Change          TolE            ....  1.000e-08 Eh
 1-El. energy change                    ....  1.000e-05 Eh
 Orbital Gradient       TolG            ....  1.000e-05
 Orbital Rotation angle TolX            ....  1.000e-05
 DIIS Error             TolErr          ....  5.000e-07


Diagonalization of the overlap matrix:
Smallest eigenvalue                        ... 1.110e-03
Time for diagonalization                   ...    0.021 sec
Threshold for overlap eigenvalues          ... 1.000e-08
Number of eigenvalues below threshold      ... 0
Time for construction of square roots      ...    0.009 sec
Total time needed                          ...    0.031 sec

---------------------
INITIAL GUESS: MOREAD
---------------------
Guess MOs are being read from file: previous.gbw
Input Geometry matches current geometry (good)
Input basis set matches current basis set (good)
MOs were renormalized
MOs were reorthogonalized (Schmidt)
                      ------------------
                      INITIAL GUESS DONE (   0.2 sec)
                      ------------------
-------------------
DFT GRID GENERATION
-------------------

General Integration Accuracy     IntAcc      ...  5.010
Radial Grid Type                 RadialGrid  ... Gauss-Chebyshev
Angular Grid (max. acc.)         AngularGrid ... Lebedev-434
Angular grid pruning method      GridPruning ... 3 (G Style)
Weight generation scheme         WeightScheme... Becke
Basis function cutoff            BFCut       ...    1.0000e-11
Integration weight cutoff        WCut        ...    1.0000e-14
Grids for H and He will be reduced by one unit

# of grid points (after initial pruning)     ... 115882 (   0.1 sec)
# of grid points (after weights+screening)   ... 108929 (   0.3 sec)
nearest neighbour list constructed           ...    0.0 sec
Grid point re-assignment to atoms done       ...    0.0 sec
Grid point division into batches done        ...    1.2 sec
Reduced shell lists constructed in    3.0 sec

Total number of grid points                  ...   108929
Total number of batches                      ...     1709
Average number of points per batch           ...       63
Average number of grid points per atom       ...     9077
Average number of shells per batch           ...    53.67 (53.14%)
Average number of basis functions per batch  ...   140.81 (54.37%)
Average number of large shells per batch     ...    40.28 (75.04%)
Average number of large basis fcns per batch ...   103.07 (73.20%)
Maximum spatial batch extension              ...  38.43, 33.20, 30.37 au
Average spatial batch extension              ...   2.44,  2.44,  2.45 au

Time for grid setup =    3.403 sec

--------------------
COSX GRID GENERATION
--------------------

General Integration Accuracy     IntAcc      ...  3.340
Radial Grid Type                 RadialGrid  ... Gauss-Chebyshev
Angular Grid (max. acc.)         AngularGrid ... Lebedev-50
Angular grid pruning method      GridPruning ... 3 (G Style)
Weight generation scheme         WeightScheme... Becke
Basis function cutoff            BFCut       ...    1.0000e-11
Integration weight cutoff        WCut        ...    1.0000e-14
Grids for H and He will be reduced by one unit

# of grid points (after initial pruning)     ...   6578 (   0.0 sec)
# of grid points (after weights+screening)   ...   6202 (   0.0 sec)
nearest neighbour list constructed           ...    0.0 sec
Grid point re-assignment to atoms done       ...    0.0 sec
Grid point division into batches done        ...    0.0 sec
Reduced shell lists constructed in    0.1 sec

Total number of grid points                  ...     6202
Total number of batches                      ...      103
Average number of points per batch           ...       60
Average number of grid points per atom       ...      517
Average number of shells per batch           ...    65.26 (64.61%)
Average number of basis functions per batch  ...   174.62 (67.42%)
Average number of large shells per batch     ...    50.78 (77.81%)
Average number of large basis fcns per batch ...   133.45 (76.42%)
Maximum spatial batch extension              ...  36.53, 44.74, 29.57 au
Average spatial batch extension              ...   6.76,  6.77,  6.26 au

Overlap Fitting                  UseSFitting ... on
Constructing numerical overlap ... done (      0.1 sec)
Inverting numerical overlap    ... done (      0.0 sec)
Obtaining analytic overlap     ... done (      0.0 sec)
Final contraction and storage  ... done (      0.0 sec)


General Integration Accuracy     IntAcc      ...  3.670
Radial Grid Type                 RadialGrid  ... Gauss-Chebyshev
Angular Grid (max. acc.)         AngularGrid ... Lebedev-50
Angular grid pruning method      GridPruning ... 3 (G Style)
Weight generation scheme         WeightScheme... Becke
Basis function cutoff            BFCut       ...    1.0000e-11
Integration weight cutoff        WCut        ...    1.0000e-14
Grids for H and He will be reduced by one unit

# of grid points (after initial pruning)     ...   8124 (   0.0 sec)
# of grid points (after weights+screening)   ...   7641 (   0.0 sec)
nearest neighbour list constructed           ...    0.0 sec
Grid point re-assignment to atoms done       ...    0.0 sec
Grid point division into batches done        ...    0.0 sec
Reduced shell lists constructed in    0.1 sec

Total number of grid points                  ...     7641
Total number of batches                      ...      126
Average number of points per batch           ...       60
Average number of grid points per atom       ...      637
Average number of shells per batch           ...    64.30 (63.66%)
Average number of basis functions per batch  ...   171.57 (66.25%)
Average number of large shells per batch     ...    49.69 (77.28%)
Average number of large basis fcns per batch ...   129.52 (75.49%)
Maximum spatial batch extension              ...  29.70, 46.50, 31.14 au
Average spatial batch extension              ...   6.34,  6.37,  5.97 au

Overlap Fitting                  UseSFitting ... on
Constructing numerical overlap ... done (      0.1 sec)
Inverting numerical overlap    ... done (      0.0 sec)
Obtaining analytic overlap     ... done (      0.0 sec)
Final contraction and storage  ... done (      0.0 sec)


General Integration Accuracy     IntAcc      ...  4.010
Radial Grid Type                 RadialGrid  ... Gauss-Chebyshev
Angular Grid (max. acc.)         AngularGrid ... Lebedev-110
Angular grid pruning method      GridPruning ... 3 (G Style)
Weight generation scheme         WeightScheme... Becke
Basis function cutoff            BFCut       ...    1.0000e-11
Integration weight cutoff        WCut        ...    1.0000e-14
Grids for H and He will be reduced by one unit

# of grid points (after initial pruning)     ...  15170 (   0.0 sec)
# of grid points (after weights+screening)   ...  14400 (   0.0 sec)
nearest neighbour list constructed           ...    0.0 sec
Grid point re-assignment to atoms done       ...    0.0 sec
Grid point division into batches done        ...    0.0 sec
Reduced shell lists constructed in    0.3 sec

Total number of grid points                  ...    14400
Total number of batches                      ...      230
Average number of points per batch           ...       62
Average number of grid points per atom       ...     1200
Average number of shells per batch           ...    60.87 (60.26%)
Average number of basis functions per batch  ...   162.42 (62.71%)
Average number of large shells per batch     ...    46.56 (76.50%)
Average number of large basis fcns per batch ...   121.49 (74.80%)
Maximum spatial batch extension              ...  30.49, 32.03, 30.45 au
Average spatial batch extension              ...   5.05,  5.15,  5.08 au

Overlap Fitting                  UseSFitting ... on
Constructing numerical overlap ... done (      0.2 sec)
Inverting numerical overlap    ... done (      0.0 sec)
Obtaining analytic overlap     ... done (      0.0 sec)
Final contraction and storage  ... done (      0.0 sec)

Time for X-Grid setup             =    1.204 sec
--------------
SCF ITERATIONS
--------------
ITER       Energy         Delta-E        Max-DP      RMS-DP      [F,P]     Damp
               ***  Starting incremental Fock matrix formation  ***
  0  -1668.8080228485   0.000000000000 0.03669161  0.00025475  0.0682524 0.8500
  1  -1668.8116733594  -0.003650510943 0.03307383  0.00025230  0.0581203 0.8500
                               ***Turning on DIIS***
  2  -1668.8150586988  -0.003385339381 0.02799564  0.00022319  0.0494899 0.8500
  3  -1668.8179399495  -0.002881250686 0.02310670  0.00018728  0.0421333 0.8500
  4  -1668.8203657602  -0.002425810722 0.01949642  0.00016025  0.0358238 0.8500
  5  -1668.8224096842  -0.002043923985 0.01703841  0.00014165  0.0304285 0.8500
  6  -1668.8241592477  -0.001749563565 0.09944989  0.00084074  0.0258468 0.0000
  7  -1668.8349983523  -0.010839104525 0.00449090  0.00008720  0.0048125 0.0000
  8  -1668.8352331465  -0.000234794277 0.00401010  0.00006764  0.0037202 0.0000
  9  -1668.8354154778  -0.000182331226 0.00581662  0.00009472  0.0036715 0.0000
 10  -1668.8356459265  -0.000230448765 0.00525279  0.00008558  0.0035658 0.0000
 11  -1668.8358348545  -0.000188927957 0.00597422  0.00009547  0.0031926 0.0000
 12  -1668.8360195315  -0.000184676982 0.00457479  0.00007262  0.0029122 0.0000
 13  -1668.8361477075  -0.000128176081 0.00692011  0.00010913  0.0025160 0.0000
 14  -1668.8363033703  -0.000155662734 0.00417450  0.00006483  0.0023291 0.0000
 15  -1668.8363892391  -0.000085868856 0.00535392  0.00008295  0.0019835 0.0000
 16  -1668.8364779621  -0.000088722918 0.00419036  0.00006432  0.0016231 0.0000
 17  -1668.8365360085  -0.000058046476 0.00421348  0.00006465  0.0013554 0.0000
 18  -1668.8365825837  -0.000046575178 0.00345936  0.00005282  0.0010909 0.0000
 19  -1668.8366135610  -0.000030977271 0.00322579  0.00004938  0.0008558 0.0000
               *** Restarting incremental Fock matrix formation ***
                                   *** Resetting DIIS ***
                      *** Initiating the SOSCF procedure ***
                           *** Shutting down DIIS ***
                      *** Re-Reading the Fockian *** 
                      *** Removing any level shift *** 
ITER      Energy       Delta-E        Grad      Rot      Max-DP    RMS-DP
 20  -1668.83664248  -0.0000289150  0.000600  0.000600  0.000592  0.000012
               *** Restarting incremental Fock matrix formation ***
 21  -1668.83664793  -0.0000054580  0.000535  0.005146  0.001821  0.000031
 22  -1668.83665824  -0.0000103052  0.000400  0.016017  0.005833  0.000095
 23  -1668.83667254  -0.0000142970  0.000163  0.001997  0.000863  0.000016
 24  -1668.83667327  -0.0000007330  0.000132  0.000360  0.000465  0.000006
 25  -1668.83667399  -0.0000007208  0.000033  0.000234  0.000185  0.000003
 26  -1668.83667405  -0.0000000626  0.000022  0.000080  0.000093  0.000001
 27  -1668.83667410  -0.0000000452  0.000003  0.000018  0.000009  0.000000
                  ***Gradient check signals convergence***
              ***Rediagonalizing the Fockian in SOSCF/NRSCF***

               *****************************************************
               *                     SUCCESS                       *
               *           SCF CONVERGED AFTER  28 CYCLES          *
               *****************************************************

Old exchange energy                            =    -59.144190511 Eh
New exchange energy                            =    -59.147122209 Eh
Exchange energy change after final integration =     -0.002931699 Eh
Total energy after final integration           =  -1668.839605825 Eh
Final COS-X integration done in                =    29.125 sec

----------------
TOTAL SCF ENERGY
----------------

Total Energy       :        -1668.83960582 Eh          -45411.43435 eV

Components:
Nuclear Repulsion  :          569.74737834 Eh           15503.61435 eV
Electronic Energy  :        -2238.58698417 Eh          -60915.04870 eV

One Electron Energy:        -3511.63641014 Eh          -95556.48472 eV
Two Electron Energy:         1273.04942597 Eh           34641.43602 eV

Virial components:
Potential Energy   :        -3206.51207738 Eh          -87253.62951 eV
Kinetic Energy     :         1537.67247156 Eh           41842.19517 eV
Virial Ratio       :            2.08530239


DFT components:
N(Alpha)           :       46.000016939250 electrons
N(Beta)            :       46.000016939250 electrons
N(Total)           :       92.000033878500 electrons
E(X)               :      -52.548957831077 Eh       
E(C)               :       -2.601613311009 Eh       
E(XC)              :      -55.150571142086 Eh       

---------------
SCF CONVERGENCE
---------------

  Last Energy change         ...   -2.8372e-08  Tolerance :   1.0000e-08
  Last MAX-Density change    ...    2.4017e-13  Tolerance :   1.0000e-07
  Last RMS-Density change    ...    1.4840e-15  Tolerance :   5.0000e-09
  Last Orbital Gradient      ...    1.4419e-06  Tolerance :   1.0000e-05
  Last Orbital Rotation      ...    1.4904e-05  Tolerance :   1.0000e-05

             **** THE GBW FILE WAS UPDATED (PbMACl3_mp2_8.orca.gbw) ****
             **** DENSITY FILE WAS UPDATED (PbMACl3_mp2_8.orca.scfp.tmp) ****
             **** ENERGY FILE WAS UPDATED (PbMACl3_mp2_8.orca.en.tmp) ****
----------------
ORBITAL ENERGIES
----------------

  NO   OCC          E(Eh)            E(eV) 
   0   2.0000    -102.849817     -2798.6858 
   1   2.0000    -102.791133     -2797.0889 
   2   2.0000    -102.785230     -2796.9283 
   3   2.0000     -14.876884      -404.8206 
   4   2.0000     -10.660340      -290.0826 
   5   2.0000      -9.854792      -268.1625 
   6   2.0000      -9.802293      -266.7340 
   7   2.0000      -9.791339      -266.4359 
   8   2.0000      -7.492520      -203.8818 
   9   2.0000      -7.490075      -203.8153 
  10   2.0000      -7.489616      -203.8028 
  11   2.0000      -7.438777      -202.4194 
  12   2.0000      -7.437644      -202.3886 
  13   2.0000      -7.436691      -202.3626 
  14   2.0000      -7.429145      -202.1573 
  15   2.0000      -7.426345      -202.0811 
  16   2.0000      -7.426050      -202.0731 
  17   2.0000      -5.903560      -160.6440 
  18   2.0000      -3.675671      -100.0201 
  19   2.0000      -3.673791       -99.9689 
  20   2.0000      -3.670814       -99.8879 
  21   2.0000      -1.078220       -29.3399 
  22   2.0000      -1.061461       -28.8838 
  23   2.0000      -1.061198       -28.8767 
  24   2.0000      -1.058064       -28.7914 
  25   2.0000      -1.056570       -28.7507 
  26   2.0000      -1.055657       -28.7259 
  27   2.0000      -0.858397       -23.3582 
  28   2.0000      -0.853143       -23.2152 
  29   2.0000      -0.795840       -21.6559 
  30   2.0000      -0.789908       -21.4945 
  31   2.0000      -0.607057       -16.5189 
  32   2.0000      -0.604812       -16.4578 
  33   2.0000      -0.604662       -16.4537 
  34   2.0000      -0.543131       -14.7793 
  35   2.0000      -0.476754       -12.9731 
  36   2.0000      -0.472851       -12.8669 
  37   2.0000      -0.353515        -9.6196 
  38   2.0000      -0.344379        -9.3710 
  39   2.0000      -0.338965        -9.2237 
  40   2.0000      -0.335504        -9.1295 
  41   2.0000      -0.311073        -8.4647 
  42   2.0000      -0.291676        -7.9369 
  43   2.0000      -0.273257        -7.4357 
  44   2.0000      -0.265078        -7.2131 
  45   2.0000      -0.225166        -6.1271 
  46   0.0000      -0.121353        -3.3022 
  47   0.0000      -0.106225        -2.8905 
  48   0.0000      -0.082353        -2.2409 
  49   0.0000       0.073366         1.9964 
  50   0.0000       0.081644         2.2216 
  51   0.0000       0.103867         2.8264 
  52   0.0000       0.106003         2.8845 
  53   0.0000       0.130474         3.5504 
  54   0.0000       0.143689         3.9100 
  55   0.0000       0.151359         4.1187 
  56   0.0000       0.168585         4.5874 
  57   0.0000       0.173481         4.7207 
  58   0.0000       0.182919         4.9775 
  59   0.0000       0.184102         5.0097 
  60   0.0000       0.189181         5.1479 
  61   0.0000       0.214025         5.8239 
  62   0.0000       0.227106         6.1799 
  63   0.0000       0.246186         6.6991 
  64   0.0000       0.289040         7.8652 
  65   0.0000       0.299492         8.1496 
  66   0.0000       0.300882         8.1874 
  67   0.0000       0.326748         8.8913 
  68   0.0000       0.339058         9.2262 
  69   0.0000       0.376345        10.2409 
  70   0.0000       0.424717        11.5571 
  71   0.0000       0.429362        11.6835 
  72   0.0000       0.435209        11.8426 
  73   0.0000       0.457124        12.4390 
  74   0.0000       0.474580        12.9140 
  75   0.0000       0.481850        13.1118 
  76   0.0000       0.483934        13.1685 
  77   0.0000       0.494876        13.4663 
  78   0.0000       0.496631        13.5140 
  79   0.0000       0.502091        13.6626 
  80   0.0000       0.514911        14.0114 
  81   0.0000       0.521059        14.1787 
  82   0.0000       0.526140        14.3170 
  83   0.0000       0.532513        14.4904 
  84   0.0000       0.537413        14.6237 
  85   0.0000       0.544295        14.8110 
  86   0.0000       0.557203        15.1623 
  87   0.0000       0.561418        15.2770 
  88   0.0000       0.574702        15.6384 
  89   0.0000       0.580813        15.8047 
  90   0.0000       0.591834        16.1046 
  91   0.0000       0.613289        16.6884 
  92   0.0000       0.615129        16.7385 
  93   0.0000       0.632931        17.2229 
  94   0.0000       0.641920        17.4675 
  95   0.0000       0.648459        17.6455 
  96   0.0000       0.652140        17.7456 
  97   0.0000       0.664251        18.0752 
  98   0.0000       0.676099        18.3976 
  99   0.0000       0.677445        18.4342 
 100   0.0000       0.690031        18.7767 
 101   0.0000       0.698408        19.0046 
 102   0.0000       0.714637        19.4463 
 103   0.0000       0.721868        19.6430 
 104   0.0000       0.733501        19.9596 
 105   0.0000       0.743973        20.2445 
 106   0.0000       0.765609        20.8333 
 107   0.0000       0.769215        20.9314 
 108   0.0000       0.782577        21.2950 
 109   0.0000       0.813088        22.1253 
 110   0.0000       0.835167        22.7261 
 111   0.0000       0.857101        23.3229 
 112   0.0000       0.899553        24.4781 
 113   0.0000       0.910875        24.7862 
 114   0.0000       0.950515        25.8648 
 115   0.0000       0.958407        26.0796 
 116   0.0000       0.977070        26.5874 
 117   0.0000       0.979753        26.6604 
 118   0.0000       0.998962        27.1832 
 119   0.0000       1.031843        28.0779 
 120   0.0000       1.048700        28.5366 
 121   0.0000       1.067330        29.0435 
 122   0.0000       1.094026        29.7700 
 123   0.0000       1.102603        30.0033 
 124   0.0000       1.147820        31.2338 
 125   0.0000       1.219235        33.1771 
 126   0.0000       1.272030        34.6137 
 127   0.0000       1.345407        36.6104 
 128   0.0000       1.420311        38.6486 
 129   0.0000       1.452295        39.5190 
 130   0.0000       1.535569        41.7849 
 131   0.0000       1.607081        43.7309 
 132   0.0000       1.615419        43.9578 
 133   0.0000       1.625765        44.2393 
 134   0.0000       1.640399        44.6375 
 135   0.0000       1.702929        46.3390 
 136   0.0000       1.768898        48.1342 
 137   0.0000       1.817892        49.4674 
 138   0.0000       1.845615        50.2217 
 139   0.0000       1.889377        51.4126 
 140   0.0000       1.895951        51.5914 
 141   0.0000       1.914214        52.0884 
 142   0.0000       1.921503        52.2867 
 143   0.0000       1.938538        52.7503 
 144   0.0000       1.956643        53.2430 
 145   0.0000       1.958919        53.3049 
 146   0.0000       1.967432        53.5365 
 147   0.0000       1.988839        54.1191 
 148   0.0000       2.002496        54.4907 
 149   0.0000       2.013182        54.7815 
 150   0.0000       2.020010        54.9673 
 151   0.0000       2.034475        55.3609 
 152   0.0000       2.055124        55.9228 
 153   0.0000       2.067485        56.2591 
 154   0.0000       2.077903        56.5426 
 155   0.0000       2.079985        56.5993 
 156   0.0000       2.085986        56.7626 
 157   0.0000       2.092667        56.9444 
 158   0.0000       2.110137        57.4198 
 159   0.0000       2.115835        57.5748 
 160   0.0000       2.130226        57.9664 
 161   0.0000       2.154968        58.6397 
 162   0.0000       2.161972        58.8303 
 163   0.0000       2.173394        59.1411 
 164   0.0000       2.187630        59.5284 
 165   0.0000       2.202386        59.9300 
 166   0.0000       2.222094        60.4663 
 167   0.0000       2.242149        61.0120 
 168   0.0000       2.246942        61.1424 
 169   0.0000       2.266933        61.6864 
 170   0.0000       2.267626        61.7052 
 171   0.0000       2.271918        61.8220 
 172   0.0000       2.283967        62.1499 
 173   0.0000       2.291686        62.3599 
 174   0.0000       2.302771        62.6616 
 175   0.0000       2.304884        62.7191 
 176   0.0000       2.310454        62.8707 
 177   0.0000       2.324473        63.2521 
 178   0.0000       2.326604        63.3101 
 179   0.0000       2.330668        63.4207 
 180   0.0000       2.343058        63.7579 
 181   0.0000       2.359607        64.2082 
 182   0.0000       2.366708        64.4014 
 183   0.0000       2.381146        64.7943 
 184   0.0000       2.387865        64.9771 
 185   0.0000       2.400129        65.3108 
 186   0.0000       2.412093        65.6364 
 187   0.0000       2.420082        65.8538 
 188   0.0000       2.428898        66.0937 
 189   0.0000       2.462044        66.9956 
 190   0.0000       2.468283        67.1654 
 191   0.0000       2.476508        67.3892 
 192   0.0000       2.488091        67.7044 
 193   0.0000       2.508543        68.2609 
 194   0.0000       2.534348        68.9631 
 195   0.0000       2.543345        69.2079 
 196   0.0000       2.564179        69.7749 
 197   0.0000       2.577819        70.1460 
 198   0.0000       2.584034        70.3151 
 199   0.0000       2.606973        70.9393 
 200   0.0000       2.667390        72.5834 
 201   0.0000       2.696710        73.3812 
 202   0.0000       2.717180        73.9382 
 203   0.0000       2.756490        75.0079 
 204   0.0000       2.764427        75.2239 
 205   0.0000       2.810427        76.4756 
 206   0.0000       2.829714        77.0004 
 207   0.0000       2.862271        77.8864 
 208   0.0000       2.873931        78.2036 
 209   0.0000       2.894937        78.7752 
 210   0.0000       2.942553        80.0709 
 211   0.0000       3.097705        84.2928 
 212   0.0000       3.179143        86.5089 
 213   0.0000       3.221132        87.6515 
 214   0.0000       3.281037        89.2816 
 215   0.0000       3.326512        90.5190 
 216   0.0000       3.344810        91.0169 
 217   0.0000       3.430321        93.3438 
 218   0.0000       3.455599        94.0316 
 219   0.0000       3.614854        98.3652 
 220   0.0000       3.636453        98.9529 
 221   0.0000       3.648581        99.2829 
 222   0.0000       3.836390       104.3935 
 223   0.0000       3.919216       106.6473 
 224   0.0000       4.026051       109.5544 
 225   0.0000       4.251046       115.6768 
 226   0.0000       4.261437       115.9596 
 227   0.0000       4.498318       122.4055 
 228   0.0000       4.558516       124.0435 
 229   0.0000       4.926467       134.0560 
 230   0.0000       4.964377       135.0876 
 231   0.0000       5.025543       136.7520 
 232   0.0000       5.068521       137.9215 
 233   0.0000       5.174537       140.8063 
 234   0.0000       5.207628       141.7068 
 235   0.0000       5.262951       143.2122 
 236   0.0000       5.389279       146.6497 
 237   0.0000       5.609518       152.6427 
 238   0.0000       5.699421       155.0891 
 239   0.0000       5.945674       161.7900 
 240   0.0000      11.062410       301.0235 
 241   0.0000      11.095235       301.9167 
 242   0.0000      11.111930       302.3710 
 243   0.0000      11.128048       302.8096 
 244   0.0000      11.150649       303.4246 
 245   0.0000      11.172003       304.0057 
 246   0.0000      11.177473       304.1545 
 247   0.0000      11.196161       304.6630 
 248   0.0000      11.311105       307.7908 
 249   0.0000      22.705397       617.8453 
 250   0.0000      24.871364       676.7842 
 251   0.0000      24.982637       679.8121 
 252   0.0000      25.390041       690.8981 
 253   0.0000      32.475117       883.6928 
 254   0.0000      35.359666       962.1854 
 255   0.0000      35.599745       968.7183 
 256   0.0000      35.622747       969.3442 
 257   0.0000      35.713739       971.8202 
 258   0.0000     123.472416      3359.8553 

                    ********************************
                    * MULLIKEN POPULATION ANALYSIS *
                    ********************************

-----------------------
MULLIKEN ATOMIC CHARGES
-----------------------
   0 C :   -0.250928
   1 N :   -0.278574
   2 H :    0.134633
   3 H :    0.130513
   4 H :    0.141933
   5 H :    0.267928
   6 H :    0.286547
   7 H :    0.273340
   8 Pb:    1.008479
   9 Cl:   -0.589635
  10 Cl:   -0.599338
  11 Cl:   -0.524899
Sum of atomic charges:   -0.0000000

--------------------------------
MULLIKEN REDUCED ORBITAL CHARGES
--------------------------------
  0 C s       :     3.259852  s :     3.259852
      pz      :     0.979422  p :     2.911726
      px      :     0.990642
      py      :     0.941662
      dz2     :     0.007952  d :     0.073329
      dxz     :     0.020073
      dyz     :     0.018082
      dx2y2   :     0.008662
      dxy     :     0.018559
      f0      :     0.000337  f :     0.006021
      f+1     :     0.000501
      f-1     :     0.000742
      f+2     :     0.000750
      f-2     :     0.002580
      f+3     :     0.000493
      f-3     :     0.000618
  1 N s       :     3.419101  s :     3.419101
      pz      :     1.260063  p :     3.803472
      px      :     1.282109
      py      :     1.261300
      dz2     :     0.007940  d :     0.053720
      dxz     :     0.015434
      dyz     :     0.012668
      dx2y2   :     0.005300
      dxy     :     0.012377
      f0      :     0.000165  f :     0.002280
      f+1     :     0.000193
      f-1     :     0.000210
      f+2     :     0.000220
      f-2     :     0.001156
      f+3     :     0.000154
      f-3     :     0.000183
  2 H s       :     0.843858  s :     0.843858
      pz      :     0.008047  p :     0.021509
      px      :     0.007571
      py      :     0.005891
  3 H s       :     0.848100  s :     0.848100
      pz      :     0.006766  p :     0.021386
      px      :     0.007287
      py      :     0.007334
  4 H s       :     0.836504  s :     0.836504
      pz      :     0.006952  p :     0.021563
      px      :     0.007221
      py      :     0.007390
  5 H s       :     0.690999  s :     0.690999
      pz      :     0.009826  p :     0.041074
      px      :     0.015010
      py      :     0.016237
  6 H s       :     0.674487  s :     0.674487
      pz      :     0.013772  p :     0.038966
      px      :     0.009419
      py      :     0.015775
  7 H s       :     0.654789  s :     0.654789
      pz      :     0.039993  p :     0.071871
      px      :     0.021231
      py      :     0.010647
  8 Pbs       :     3.977242  s :     3.977242
      pz      :     2.322281  p :     6.927563
      px      :     2.381507
      py      :     2.223776
      dz2     :     2.023444  d :    10.074432
      dxz     :     2.014132
      dyz     :     2.011699
      dx2y2   :     2.014826
      dxy     :     2.010331
      f0      :     0.002276  f :     0.012285
      f+1     :     0.004402
      f-1     :     0.001361
      f+2     :     0.001037
      f-2     :     0.000797
      f+3     :     0.001931
      f-3     :     0.000482
  9 Cls       :     5.974428  s :     5.974428
      pz      :     3.964459  p :    11.601937
      px      :     3.684324
      py      :     3.953155
      dz2     :     0.002158  d :     0.012676
      dxz     :     0.000563
      dyz     :     0.001788
      dx2y2   :     0.004775
      dxy     :     0.003392
      f0      :     0.000035  f :     0.000593
      f+1     :     0.000058
      f-1     :     0.000107
      f+2     :     0.000050
      f-2     :     0.000034
      f+3     :     0.000225
      f-3     :     0.000084
 10 Cls       :     5.953638  s :     5.953638
      pz      :     3.881294  p :    11.611820
      px      :     3.832610
      py      :     3.897916
      dz2     :     0.012308  d :     0.031606
      dxz     :     0.005907
      dyz     :     0.004293
      dx2y2   :     0.004232
      dxy     :     0.004867
      f0      :     0.000744  f :     0.002274
      f+1     :     0.000588
      f-1     :     0.000405
      f+2     :     0.000100
      f-2     :     0.000127
      f+3     :     0.000201
      f-3     :     0.000109
 11 Cls       :     5.967420  s :     5.967420
      pz      :     3.760652  p :    11.546814
      px      :     3.860738
      py      :     3.925425
      dz2     :     0.002847  d :     0.010226
      dxz     :     0.004150
      dyz     :     0.000912
      dx2y2   :     0.000719
      dxy     :     0.001598
      f0      :     0.000045  f :     0.000439
      f+1     :     0.000187
      f-1     :     0.000027
      f+2     :     0.000061
      f-2     :     0.000049
      f+3     :     0.000048
      f-3     :     0.000022


                     *******************************
                     * LOEWDIN POPULATION ANALYSIS *
                     *******************************

----------------------
LOEWDIN ATOMIC CHARGES
----------------------
   0 C :   -0.304645
   1 N :    0.030647
   2 H :    0.114296
   3 H :    0.115005
   4 H :    0.118220
   5 H :    0.145346
   6 H :    0.163169
   7 H :    0.019987
   8 Pb:    0.751918
   9 Cl:   -0.483087
  10 Cl:   -0.329810
  11 Cl:   -0.341046

-------------------------------
LOEWDIN REDUCED ORBITAL CHARGES
-------------------------------
  0 C s       :     2.853610  s :     2.853610
      pz      :     1.036003  p :     3.096797
      px      :     1.046670
      py      :     1.014124
      dz2     :     0.030929  d :     0.316934
      dxz     :     0.086973
      dyz     :     0.081746
      dx2y2   :     0.035567
      dxy     :     0.081719
      f0      :     0.005159  f :     0.037304
      f+1     :     0.004029
      f-1     :     0.005953
      f+2     :     0.004402
      f-2     :     0.006969
      f+3     :     0.004859
      f-3     :     0.005933
  1 N s       :     3.014100  s :     3.014100
      pz      :     1.269339  p :     3.770749
      px      :     1.252199
      py      :     1.249212
      dz2     :     0.023448  d :     0.174282
      dxz     :     0.049608
      dyz     :     0.042006
      dx2y2   :     0.017963
      dxy     :     0.041257
      f0      :     0.001625  f :     0.010221
      f+1     :     0.001300
      f-1     :     0.001414
      f+2     :     0.001093
      f-2     :     0.002053
      f+3     :     0.001208
      f-3     :     0.001527
  2 H s       :     0.823997  s :     0.823997
      pz      :     0.022422  p :     0.061707
      px      :     0.021288
      py      :     0.017997
  3 H s       :     0.823907  s :     0.823907
      pz      :     0.018965  p :     0.061087
      px      :     0.022022
      py      :     0.020101
  4 H s       :     0.820255  s :     0.820255
      pz      :     0.020942  p :     0.061526
      px      :     0.020222
      py      :     0.020361
  5 H s       :     0.731336  s :     0.731336
      pz      :     0.033293  p :     0.123319
      px      :     0.042967
      py      :     0.047059
  6 H s       :     0.722028  s :     0.722028
      pz      :     0.038805  p :     0.114802
      px      :     0.031216
      py      :     0.044781
  7 H s       :     0.718452  s :     0.718452
      pz      :     0.158751  p :     0.261562
      px      :     0.069771
      py      :     0.033040
  8 Pbs       :     3.949193  s :     3.949193
      pz      :     2.383414  p :     7.084505
      px      :     2.441826
      py      :     2.259264
      dz2     :     2.060550  d :    10.189571
      dxz     :     2.044749
      dyz     :     2.020987
      dx2y2   :     2.035639
      dxy     :     2.027645
      f0      :     0.004088  f :     0.024814
      f+1     :     0.009732
      f-1     :     0.002423
      f+2     :     0.002266
      f-2     :     0.001544
      f+3     :     0.003940
      f-3     :     0.000821
  9 Cls       :     5.909853  s :     5.909853
      pz      :     3.947269  p :    11.541757
      px      :     3.668300
      py      :     3.926187
      dz2     :     0.005564  d :     0.030002
      dxz     :     0.001287
      dyz     :     0.003568
      dx2y2   :     0.009713
      dxy     :     0.009870
      f0      :     0.000067  f :     0.001475
      f+1     :     0.000113
      f-1     :     0.000317
      f+2     :     0.000117
      f-2     :     0.000070
      f+3     :     0.000610
      f-3     :     0.000181
 10 Cls       :     5.799099  s :     5.799099
      pz      :     3.770573  p :    11.449758
      px      :     3.791652
      py      :     3.887533
      dz2     :     0.032533  d :     0.074793
      dxz     :     0.014540
      dyz     :     0.006351
      dx2y2   :     0.009997
      dxy     :     0.011373
      f0      :     0.002197  f :     0.006159
      f+1     :     0.001805
      f-1     :     0.000997
      f+2     :     0.000180
      f-2     :     0.000217
      f+3     :     0.000571
      f-3     :     0.000193
 11 Cls       :     5.858946  s :     5.858946
      pz      :     3.743752  p :    11.465890
      px      :     3.830957
      py      :     3.891181
      dz2     :     0.004661  d :     0.015514
      dxz     :     0.005462
      dyz     :     0.000939
      dx2y2   :     0.000928
      dxy     :     0.003524
      f0      :     0.000065  f :     0.000696
      f+1     :     0.000269
      f-1     :     0.000067
      f+2     :     0.000078
      f-2     :     0.000059
      f+3     :     0.000122
      f-3     :     0.000035


                      *****************************
                      * MAYER POPULATION ANALYSIS *
                      *****************************

  NA   - Mulliken gross atomic population
  ZA   - Total nuclear charge
  QA   - Mulliken gross atomic charge
  VA   - Mayer's total valence
  BVA  - Mayer's bonded valence
  FA   - Mayer's free valence

  ATOM       NA         ZA         QA         VA         BVA        FA
  0 C      6.2509     6.0000    -0.2509     3.8826     3.8826    -0.0000
  1 N      7.2786     7.0000    -0.2786     3.2043     3.2043     0.0000
  2 H      0.8654     1.0000     0.1346     0.9623     0.9623    -0.0000
  3 H      0.8695     1.0000     0.1305     0.9657     0.9657     0.0000
  4 H      0.8581     1.0000     0.1419     0.9655     0.9655    -0.0000
  5 H      0.7321     1.0000     0.2679     0.9707     0.9707    -0.0000
  6 H      0.7135     1.0000     0.2865     0.9592     0.9592     0.0000
  7 H      0.7267     1.0000     0.2733     1.0413     1.0413     0.0000
  8 Pb    20.9915    22.0000     1.0085     1.6710     1.6710    -0.0000
  9 Cl    17.5896    17.0000    -0.5896     0.6351     0.6351     0.0000
 10 Cl    17.5993    17.0000    -0.5993     0.6621     0.6621     0.0000
 11 Cl    17.5249    17.0000    -0.5249     0.7956     0.7956    -0.0000

  Mayer bond orders larger than 0.1
B(  0-C ,  1-N ) :   0.9239 B(  0-C ,  2-H ) :   0.9749 B(  0-C ,  3-H ) :   0.9761 
B(  0-C ,  4-H ) :   0.9733 B(  1-N ,  5-H ) :   0.8477 B(  1-N ,  6-H ) :   0.8515 
B(  1-N ,  7-H ) :   0.6818 B(  5-H , 11-Cl) :   0.1169 B(  6-H ,  9-Cl) :   0.1090 
B(  7-H , 10-Cl) :   0.3563 B(  8-Pb,  9-Cl) :   0.5798 B(  8-Pb, 10-Cl) :   0.3800 
B(  8-Pb, 11-Cl) :   0.6918 

-------
TIMINGS
-------

Total SCF time: 0 days 0 hours 7 min 41 sec 

Total time                  ....     461.551 sec
Sum of individual times     ....     431.302 sec  ( 93.4%)

Fock matrix formation       ....     425.125 sec  ( 92.1%)
  Coulomb formation         ....     351.873 sec  ( 82.8% of F)
  Split-RI-J                ....      25.660 sec  (  6.0% of F)
  Chain of spheres X        ....     355.247 sec  ( 83.6% of F)
  COS-X 1 center corr.      ....       0.000 sec  (  0.0% of F)
  XC integration            ....      73.311 sec  ( 17.2% of F)
    Basis function eval.    ....      24.104 sec  ( 32.9% of XC)
    Density eval.           ....      20.977 sec  ( 28.6% of XC)
    XC-Functional eval.     ....       4.789 sec  (  6.5% of XC)
    XC-Potential eval.      ....      22.023 sec  ( 30.0% of XC)
Diagonalization             ....       0.820 sec  (  0.2%)
Density matrix formation    ....       0.071 sec  (  0.0%)
Population analysis         ....       0.083 sec  (  0.0%)
Initial guess               ....       0.168 sec  (  0.0%)
Orbital Transformation      ....       0.000 sec  (  0.0%)
Orbital Orthonormalization  ....       0.164 sec  (  0.0%)
DIIS solution               ....       0.238 sec  (  0.1%)
SOSCF solution              ....       0.189 sec  (  0.0%)
Grid generation             ....       4.607 sec  (  1.0%)

------------------------------------------------------------------------------
                              ORCA MP2 CALCULATION
------------------------------------------------------------------------------


----------------------
RI-MP2 ENERGY+GRADIENT
----------------------
Dimension of the basis                    ...  259
Memory devoted to MP2                     ... 1000 MB   
Data format for buffers                   ... DOUBLE
Compression type for matrix containers    ... UNCOMPRESSED
Overall scaling of the MP2 energy         ...   2.700e-01 Eh
Calculating two index integrals           ... done (    0.016 sec)
Cholesky decomposition of the V-matrix    ... done
Cholesky decomposition of V**-1           ... done (    0.031 sec)

-----------------
RI-TRANSFORMATION (AUX index driven)
-----------------

Dimension of the orbital-basis         ... 259
Dimension of the aux-basis             ... 493
Transformation of internal MOs         ...    0-  45
Transformation of internal/external MOs...    0-  45 to   46- 258
Number Format for Storage              ... Double (8 Byte)
Integral mode                          ... Direct

First Phase: integral generation and transformation of MO indices
  Aux angular momentum 0               ... done (    0.514 sec)
  Aux angular momentum 1               ... done (    0.425 sec)
  Aux angular momentum 2               ... done (    0.520 sec)
  Aux angular momentum 3               ... done (    0.298 sec)
  Aux angular momentum 4               ... done (    0.262 sec)
Closing buffer VIJ ( 0.00 GB; CompressionRatio= 1.95)
Closing buffer VIA ( 0.04 GB; CompressionRatio= 1.00)
  Phase 1 completed in     2.137 sec
Second Phase: sorting and transformation of aux index

IJ-Transformation
Memory available                       ... 990 MB 
Max. # MO pairs treated in a batch     ... 46    
# of internal orbitals                 ... 46
# batches for internal orbitals        ... 1
Closing buffer IJV ( 0.00 GB; CompressionRatio= 1.00)
(ij|v) transformation done in     0.139 sec

IA-Transformation
Memory available                       ... 990 MB 
Max. # MO pairs treated in a batch     ... 46    
# of internal orbitals                 ... 46
# batches for internal orbitals        ... 1
Closing buffer IAV ( 0.04 GB; CompressionRatio= 1.00)
(ia|v) transformation done in     0.602 sec

  Phase 2 completed in     0.771 sec
RI-Integral transformation completed in     2.908 sec
Opening buffers                              ... done

Starting loop over batches of integrals:

Operator 0  - window                       ... (  0- 45)x( 46-258)
Operator 0  - Memory available             ...  1000 MB
Operator 0  - Memory needed per MO         ...   1.6 MB
Operator 0  - Number of orbitals per batch ... 46
Operator 0  - Number of batches            ... 1

OPERATOR  0   PASS   0:  MOs     0 ...   45
  Reading integrals       ... ok
  Internal MO   2
  Internal MO   5
  Internal MO   8
  Internal MO  11
  Internal MO  14
  Internal MO  17
  Internal MO  20
  Internal MO  23
  Internal MO  26
  Internal MO  29
  Internal MO  32
  Internal MO  35
  Internal MO  38
  Internal MO  41
  Internal MO  44
Closing buffer GIPV ( 0.04 GB; CompressionRatio= 1.00)
Time spent in pair loops =    64.499 sec

-----------------------------------------------
 RI-MP2 CORRELATION ENERGY:     -0.584172908 Eh
-----------------------------------------------


---------------------
MP2 DENSITY FORMATION
---------------------

Completing the external part of the density      ... done
Storing the unrelaxed density                    ... done

Calculating the xc-kernel                        ... done
Calculating G(D)                                 ... done
Completing the Lagrangian                        ... done
Solving the Z-vector equations                   ... 

------------------------------------------------------------------------------
                           ORCA CP-SCF CALCULATION
------------------------------------------------------------------------------

Input orbitals are from        ... PbMACl3_mp2_8.orca.gbw
Input Perturbation             ... PbMACl3_mp2_8.orca.pin.tmp
Wavefunction output            ... PbMACl3_mp2_8.orca.pout.tmp
Perturbation mode              ... Real perturbation
Solver                         ... DIIS
   MaxDIIS                     ... 20
   Levelshift                  ...    3.000e-01 Eh
Max. number of iterations      ... 128
Convergence tolerance          ... 1.000e-08
Integral handling              ... Direct
COSX GridX                     ... 1
Number of perturbations        ... 1
Number of operators            ... 1
Orbital ranges used for CP-SCF:
 Operator 0:  Orbitals   0... 45  to  46...258
DFT calculation                         ... on
Exchange functional (SCF)               ... B88
Exchange functional (CP-SCF)            ... B88
   X-Alpha parameter    XAlpha (SCF)    ...  0.666667
   X-Alpha parameter    XAlpha (CP-SCF) ...  0.666667
   Becke's b parameter  XBeta (SCF)     ...  0.004200
   Becke's b parameter  XBeta (CP-SCF)  ...  0.004200
Correlation functional (SCF)            ... LYP
Correlation functional (CP-SCF)         ... LYP
 LDA part of GGA corr.  LDAOpt (SCF)    ... VWN-3
 LDA part of GGA corr.  LDAOpt (CP-SCF) ... VWN-3
Hybrid DFT                              ... on
   Exchange mixing (SCF)                ...  0.530
   Exchange mixing (CP-SCF)             ...  0.530
   GGA exch. scaling(SCF)               ...  0.470
   GGA exch. scaling (CP-SCF)           ...  0.470
   GGA corr. scaling (SCF)              ...  0.730
   GGA corr. scaling (CP-SCF)           ...  0.730
The RIJCOSX approximation is active
Variables per vector in CP-SCF ... 9798
Number of vectors sought       ... 1
Calculating the xc-kernel      ... done

Solving the CP-SCF equations by a DIIS algorithm

-----------------
CP-SCF ITERATIONS
-----------------
  Iteration   0: MaxR=  0.136261393
  Iteration   1: MaxR=  0.074003337
  Iteration   2: MaxR=  0.014945234
  Iteration   3: MaxR=  0.009232703
  Iteration   4: MaxR=  0.006426527
  Iteration   5: MaxR=  0.004786108
  Iteration   6: MaxR=  0.003451724
  Iteration   7: MaxR=  0.002234738
  Iteration   8: MaxR=  0.001567702
  Iteration   9: MaxR=  0.000897051
  Iteration  10: MaxR=  0.000478697
  Iteration  11: MaxR=  0.000309567
  Iteration  12: MaxR=  0.000210703
  Iteration  13: MaxR=  0.000139611
  Iteration  14: MaxR=  0.000117233
  Iteration  15: MaxR=  0.000094622
  Iteration  16: MaxR=  0.000060064
  Iteration  17: MaxR=  0.000037575
  Iteration  18: MaxR=  0.000020764
  Iteration  19: MaxR=  0.000010862
  Iteration  20: MaxR=  0.000006104
  Iteration  21: MaxR=  0.000003613
  Iteration  22: MaxR=  0.000002133
  Iteration  23: MaxR=  0.000001113
  Iteration  24: MaxR=  0.000000519
  Iteration  25: MaxR=  0.000000302
  Iteration  26: MaxR=  0.000000169
  Iteration  27: MaxR=  0.000000089
  Iteration  28: MaxR=  0.000000048
  Iteration  29: MaxR=  0.000000027
  Iteration  30: MaxR=  0.000000017
  Iteration  31: MaxR=  0.000000010
  Iteration  32: MaxR=  0.000000006
                              *** THE CP-SCF HAS CONVERGED *** 
done
Finalizing the relaxed density                   ... done
Transforming P to the AO basis                   ... done
Storing the relaxed density                      ... done

------------------------------------
ENERGY WEIGHTED DENSITY FINALIZATION
------------------------------------

Gathering the parts of the W-matrix              ... done
Forming the Z-density                            ... done
Transforming Z to the AO basis                   ... done
Calculating G(Z)                                 ... done
Finalizing the W-matrix                          ... done
Transforming W to the AO basis and storing       ... done
Entering the RIJONX and RIJCOSX sections
Starting the three-index derivative integrals:
Operator 0  - Memory available             ...  1000 MB
Operator 0  - Memory needed per MO         ...   1.0 MB
Operator 0  - Number of orbitals per batch ... 46
Operator 0  - Number of batches            ... 1

OPERATOR  0   PASS   0:  MOs     0 ...   45

----------------------------------
MP2 DERIVATIVE INTEGRAL GENERATION
----------------------------------


Input Correlated Electron Density   ... PbMACl3_mp2_8.orca.pmp2re
Input Energy Weighted Density       ... PbMACl3_mp2_8.orca.wmp2.tmp
Input SCF Electron Density          ... PbMACl3_mp2_8.orca.scfp.tmp

One-Electron Terms    ...
  ECP gradient                                           ... One-Electron Terms done

-----------------------------------------------------------
MP2 COSX Grid Generation
-----------------------------------------------------------

General Integration Accuracy     IntAcc      ...  4.340
Radial Grid Type                 RadialGrid  ... Gauss-Chebyshev
Angular Grid (max. acc.)         AngularGrid ... Lebedev-302
Angular grid pruning method      GridPruning ... 3 (G Style)
Weight generation scheme         WeightScheme... Becke
Basis function cutoff            BFCut       ...    1.0000e-11
Integration weight cutoff        WCut        ...    1.0000e-14
Grids for H and He will be reduced by one unit

# of grid points (after initial pruning)     ...  57718 (   0.0 sec)
# of grid points (after weights+screening)   ...  54485 (   0.2 sec)
nearest neighbour list constructed           ...    0.0 sec
Grid point re-assignment to atoms done       ...    0.0 sec
Grid point division into batches done        ...    0.3 sec
Reduced shell lists constructed in    1.2 sec

Total number of grid points                  ...    54485
Total number of batches                      ...      857
Average number of points per batch           ...       63
Average number of grid points per atom       ...     4540
Average number of shells per batch           ...    55.12 (54.58%)
Average number of basis functions per batch  ...   145.25 (56.08%)
Average number of large shells per batch     ...    41.50 (75.30%)
Average number of large basis fcns per batch ...   106.90 (73.60%)
Maximum spatial batch extension              ...  35.78, 34.22, 32.98 au
Average spatial batch extension              ...   3.15,  3.14,  3.14 au

Overlap Fitting                  UseSFitting ... on
Two electron COSX terms .... 
Integration Timings:
Total Time                  =   118.8 sec
Basis fcn evaluation        =     0.4 sec
Density evaluation          =     1.3 sec
Integral evaluation         =   114.7 sec
K(P) evaluation             =     1.1 sec
                          .... COSX two electron terms done
COSX two-electron contribution to the gradient
     0:    -0.020142    -0.014011    -0.021660
     1:     0.018356     0.076436     0.009661
     2:     0.096027    -0.084033     0.102832
     3:    -0.102984     0.094804     0.086835
     4:     0.094001     0.096371    -0.096307
     5:    -0.111863    -0.110952     0.094362
     6:     0.113581    -0.117303    -0.109063
     7:    -0.090979     0.073650    -0.066700
     8:    -0.094819    -0.029499    -0.051238
     9:     0.014923     0.040505     0.001709
    10:     0.049524    -0.027132     0.002627
    11:     0.034708     0.001121     0.046955
Exchange-correlation gradient    ... done
Dispersion correction            ... 
Entering the calculation of the dispersion correction...

Checking the input atom types...

Done
done

                *********************************************
                * UNRELAXED MP2 DENSITY POPULATION ANALYSIS *
                *********************************************

------------------------------------------------------------------------------
                           ORCA POPULATION ANALYSIS
------------------------------------------------------------------------------
Input electron density              ... PbMACl3_mp2_8.orca.pmp2ur
BaseName (.gbw .S,...)              ... PbMACl3_mp2_8.orca

                    ********************************
                    * MULLIKEN POPULATION ANALYSIS *
                    ********************************

-----------------------
MULLIKEN ATOMIC CHARGES
-----------------------
   0 C :   -0.255537
   1 N :   -0.277623
   2 H :    0.135665
   3 H :    0.131595
   4 H :    0.142990
   5 H :    0.267000
   6 H :    0.285758
   7 H :    0.271361
   8 Pb:    0.971367
   9 Cl:   -0.571544
  10 Cl:   -0.587744
  11 Cl:   -0.513288
Sum of atomic charges:   -0.0000000

--------------------------------
MULLIKEN REDUCED ORBITAL CHARGES
--------------------------------
  0 C s       :     3.258634  s :     3.258634
      pz      :     0.978008  p :     2.907714
      px      :     0.989151
      py      :     0.940555
      dz2     :     0.009994  d :     0.082024
      dxz     :     0.021658
      dyz     :     0.019592
      dx2y2   :     0.010701
      dxy     :     0.020078
      f0      :     0.000494  f :     0.007166
      f+1     :     0.000676
      f-1     :     0.000913
      f+2     :     0.000932
      f-2     :     0.002706
      f+3     :     0.000659
      f-3     :     0.000785
  1 N s       :     3.417005  s :     3.417005
      pz      :     1.256103  p :     3.792312
      px      :     1.278401
      py      :     1.257809
      dz2     :     0.010334  d :     0.064963
      dxz     :     0.017605
      dyz     :     0.014859
      dx2y2   :     0.007650
      dxy     :     0.014516
      f0      :     0.000315  f :     0.003342
      f+1     :     0.000349
      f-1     :     0.000364
      f+2     :     0.000378
      f-2     :     0.001299
      f+3     :     0.000303
      f-3     :     0.000334
  2 H s       :     0.841767  s :     0.841767
      pz      :     0.008394  p :     0.022568
      px      :     0.007920
      py      :     0.006254
  3 H s       :     0.845964  s :     0.845964
      pz      :     0.007119  p :     0.022441
      px      :     0.007639
      py      :     0.007683
  4 H s       :     0.834407  s :     0.834407
      pz      :     0.007303  p :     0.022603
      px      :     0.007565
      py      :     0.007735
  5 H s       :     0.691301  s :     0.691301
      pz      :     0.010053  p :     0.041699
      px      :     0.015207
      py      :     0.016439
  6 H s       :     0.674662  s :     0.674662
      pz      :     0.013977  p :     0.039580
      px      :     0.009637
      py      :     0.015967
  7 H s       :     0.656134  s :     0.656134
      pz      :     0.040101  p :     0.072506
      px      :     0.021449
      py      :     0.010956
  8 Pbs       :     3.957723  s :     3.957723
      pz      :     2.336862  p :     6.978811
      px      :     2.400110
      py      :     2.241839
      dz2     :     2.017425  d :    10.045134
      dxz     :     2.008585
      dyz     :     2.005844
      dx2y2   :     2.008852
      dxy     :     2.004428
      f0      :     0.007256  f :     0.046965
      f+1     :     0.009332
      f-1     :     0.006329
      f+2     :     0.005989
      f-2     :     0.005746
      f+3     :     0.006872
      f-3     :     0.005442
  9 Cls       :     5.969386  s :     5.969386
      pz      :     3.949807  p :    11.547031
      px      :     3.659468
      py      :     3.937756
      dz2     :     0.009980  d :     0.051871
      dxz     :     0.008338
      dyz     :     0.009733
      dx2y2   :     0.012598
      dxy     :     0.011221
      f0      :     0.000414  f :     0.003255
      f+1     :     0.000428
      f-1     :     0.000495
      f+2     :     0.000432
      f-2     :     0.000414
      f+3     :     0.000605
      f-3     :     0.000467
 10 Cls       :     5.948830  s :     5.948830
      pz      :     3.866337  p :    11.561795
      px      :     3.813365
      py      :     3.882093
      dz2     :     0.020461  d :     0.072006
      dxz     :     0.013910
      dyz     :     0.012482
      dx2y2   :     0.012210
      dxy     :     0.012942
      f0      :     0.001170  f :     0.005113
      f+1     :     0.001004
      f-1     :     0.000827
      f+2     :     0.000500
      f-2     :     0.000527
      f+3     :     0.000589
      f-3     :     0.000495
 11 Cls       :     5.962485  s :     5.962485
      pz      :     3.743686  p :    11.498857
      px      :     3.845013
      py      :     3.910158
      dz2     :     0.010552  d :     0.048887
      dxz     :     0.011867
      dyz     :     0.008641
      dx2y2   :     0.008452
      dxy     :     0.009375
      f0      :     0.000421  f :     0.003059
      f+1     :     0.000561
      f-1     :     0.000403
      f+2     :     0.000432
      f-2     :     0.000422
      f+3     :     0.000424
      f-3     :     0.000395


                     *******************************
                     * LOEWDIN POPULATION ANALYSIS *
                     *******************************

----------------------
LOEWDIN ATOMIC CHARGES
----------------------
   0 C :   -0.307803
   1 N :    0.030317
   2 H :    0.114984
   3 H :    0.115716
   4 H :    0.118939
   5 H :    0.144900
   6 H :    0.162789
   7 H :    0.020085
   8 Pb:    0.716023
   9 Cl:   -0.465536
  10 Cl:   -0.320057
  11 Cl:   -0.330356

-------------------------------
LOEWDIN REDUCED ORBITAL CHARGES
-------------------------------
  0 C s       :     2.853054  s :     2.853054
      pz      :     1.033593  p :     3.089660
      px      :     1.044219
      py      :     1.011848
      dz2     :     0.032730  d :     0.326001
      dxz     :     0.088799
      dyz     :     0.083595
      dx2y2   :     0.037342
      dxy     :     0.083535
      f0      :     0.005392  f :     0.039089
      f+1     :     0.004245
      f-1     :     0.006161
      f+2     :     0.004614
      f-2     :     0.007441
      f+3     :     0.005091
      f-3     :     0.006145
  1 N s       :     3.013448  s :     3.013448
      pz      :     1.264895  p :     3.758423
      px      :     1.248284
      py      :     1.245244
      dz2     :     0.025558  d :     0.186201
      dxz     :     0.052153
      dyz     :     0.044645
      dx2y2   :     0.020053
      dxy     :     0.043792
      f0      :     0.001813  f :     0.011611
      f+1     :     0.001485
      f-1     :     0.001596
      f+2     :     0.001274
      f-2     :     0.002347
      f+3     :     0.001393
      f-3     :     0.001702
  2 H s       :     0.821367  s :     0.821367
      pz      :     0.023117  p :     0.063650
      px      :     0.021948
      py      :     0.018584
  3 H s       :     0.821270  s :     0.821270
      pz      :     0.019576  p :     0.063014
      px      :     0.022690
      py      :     0.020748
  4 H s       :     0.817637  s :     0.817637
      pz      :     0.021572  p :     0.063424
      px      :     0.020846
      py      :     0.021005
  5 H s       :     0.730338  s :     0.730338
      pz      :     0.033787  p :     0.124762
      px      :     0.043422
      py      :     0.047553
  6 H s       :     0.720934  s :     0.720934
      pz      :     0.039289  p :     0.116278
      px      :     0.031710
      py      :     0.045278
  7 H s       :     0.718183  s :     0.718183
      pz      :     0.158121  p :     0.261732
      px      :     0.070025
      py      :     0.033587
  8 Pbs       :     3.929765  s :     3.929765
      pz      :     2.397572  p :     7.134829
      px      :     2.459969
      py      :     2.277287
      dz2     :     2.054397  d :    10.159876
      dxz     :     2.039083
      dyz     :     2.015177
      dx2y2   :     2.029558
      dxy     :     2.021661
      f0      :     0.009076  f :     0.059508
      f+1     :     0.014650
      f-1     :     0.007401
      f+2     :     0.007220
      f-2     :     0.006500
      f+3     :     0.008874
      f-3     :     0.005786
  9 Cls       :     5.904621  s :     5.904621
      pz      :     3.932586  p :    11.487341
      px      :     3.643930
      py      :     3.910826
      dz2     :     0.013432  d :     0.069411
      dxz     :     0.009097
      dyz     :     0.011558
      dx2y2   :     0.017619
      dxy     :     0.017704
      f0      :     0.000448  f :     0.004163
      f+1     :     0.000486
      f-1     :     0.000710
      f+2     :     0.000503
      f-2     :     0.000454
      f+3     :     0.000997
      f-3     :     0.000566
 10 Cls       :     5.794302  s :     5.794302
      pz      :     3.756875  p :    11.401552
      px      :     3.772855
      py      :     3.871822
      dz2     :     0.040588  d :     0.115157
      dxz     :     0.022511
      dyz     :     0.014624
      dx2y2   :     0.017948
      dxy     :     0.019485
      f0      :     0.002635  f :     0.009046
      f+1     :     0.002228
      f-1     :     0.001432
      f+2     :     0.000583
      f-2     :     0.000623
      f+3     :     0.000965
      f-3     :     0.000581
 11 Cls       :     5.854014  s :     5.854014
      pz      :     3.727191  p :    11.418596
      px      :     3.815371
      py      :     3.876035
      dz2     :     0.012461  d :     0.054406
      dxz     :     0.013270
      dyz     :     0.008680
      dx2y2   :     0.008688
      dxy     :     0.011307
      f0      :     0.000445  f :     0.003340
      f+1     :     0.000649
      f-1     :     0.000446
      f+2     :     0.000452
      f-2     :     0.000436
      f+3     :     0.000502
      f-3     :     0.000410


                      *****************************
                      * MAYER POPULATION ANALYSIS *
                      *****************************

  NA   - Mulliken gross atomic population
  ZA   - Total nuclear charge
  QA   - Mulliken gross atomic charge
  VA   - Mayer's total valence
  BVA  - Mayer's bonded valence
  FA   - Mayer's free valence

  ATOM       NA         ZA         QA         VA         BVA        FA
  0 C      6.2555     6.0000    -0.2555     3.9275     3.8097     0.1178
  1 N      7.2776     7.0000    -0.2776     3.2822     3.1327     0.1495
  2 H      0.8643     1.0000     0.1357     0.9654     0.9460     0.0194
  3 H      0.8684     1.0000     0.1316     0.9687     0.9494     0.0193
  4 H      0.8570     1.0000     0.1430     0.9684     0.9492     0.0191
  5 H      0.7330     1.0000     0.2670     0.9731     0.9515     0.0217
  6 H      0.7142     1.0000     0.2858     0.9616     0.9402     0.0213
  7 H      0.7286     1.0000     0.2714     1.0443     1.0220     0.0224
  8 Pb    21.0286    22.0000     0.9714     1.9991     1.5837     0.4155
  9 Cl    17.5715    17.0000    -0.5715     0.9012     0.5948     0.3064
 10 Cl    17.5877    17.0000    -0.5877     0.9204     0.6368     0.2836
 11 Cl    17.5133    17.0000    -0.5133     1.0435     0.7613     0.2821

  Mayer bond orders larger than 0.1
B(  0-C ,  1-N ) :   0.8995 B(  0-C ,  2-H ) :   0.9592 B(  0-C ,  3-H ) :   0.9604 
B(  0-C ,  4-H ) :   0.9578 B(  1-N ,  5-H ) :   0.8312 B(  1-N ,  6-H ) :   0.8356 
B(  1-N ,  7-H ) :   0.6696 B(  5-H , 11-Cl) :   0.1149 B(  6-H ,  9-Cl) :   0.1064 
B(  7-H , 10-Cl) :   0.3498 B(  8-Pb,  9-Cl) :   0.5421 B(  8-Pb, 10-Cl) :   0.3624 
B(  8-Pb, 11-Cl) :   0.6609 


                *******************************************
                * RELAXED MP2 DENSITY POPULATION ANALYSIS *
                *******************************************

------------------------------------------------------------------------------
                           ORCA POPULATION ANALYSIS
------------------------------------------------------------------------------
Input electron density              ... PbMACl3_mp2_8.orca.pmp2re
BaseName (.gbw .S,...)              ... PbMACl3_mp2_8.orca

                    ********************************
                    * MULLIKEN POPULATION ANALYSIS *
                    ********************************

-----------------------
MULLIKEN ATOMIC CHARGES
-----------------------
   0 C :   -0.274991
   1 N :   -0.277639
   2 H :    0.141303
   3 H :    0.138573
   4 H :    0.147778
   5 H :    0.262085
   6 H :    0.278171
   7 H :    0.264172
   8 Pb:    0.877895
   9 Cl:   -0.521119
  10 Cl:   -0.548618
  11 Cl:   -0.487611
Sum of atomic charges:   -0.0000000

--------------------------------
MULLIKEN REDUCED ORBITAL CHARGES
--------------------------------
  0 C s       :     3.263083  s :     3.263083
      pz      :     0.984095  p :     2.927260
      px      :     0.996388
      py      :     0.946777
      dz2     :     0.010103  d :     0.077635
      dxz     :     0.020052
      dyz     :     0.018086
      dx2y2   :     0.010882
      dxy     :     0.018512
      f0      :     0.000477  f :     0.007012
      f+1     :     0.000668
      f-1     :     0.000901
      f+2     :     0.000922
      f-2     :     0.002631
      f+3     :     0.000644
      f-3     :     0.000769
  1 N s       :     3.419475  s :     3.419475
      pz      :     1.255723  p :     3.790923
      px      :     1.276464
      py      :     1.258736
      dz2     :     0.010655  d :     0.063953
      dxz     :     0.017329
      dyz     :     0.014215
      dx2y2   :     0.007850
      dxy     :     0.013904
      f0      :     0.000306  f :     0.003288
      f+1     :     0.000351
      f-1     :     0.000367
      f+2     :     0.000378
      f-2     :     0.001252
      f+3     :     0.000299
      f-3     :     0.000335
  2 H s       :     0.836438  s :     0.836438
      pz      :     0.008266  p :     0.022260
      px      :     0.007807
      py      :     0.006186
  3 H s       :     0.839294  s :     0.839294
      pz      :     0.007051  p :     0.022134
      px      :     0.007502
      py      :     0.007581
  4 H s       :     0.829955  s :     0.829955
      pz      :     0.007173  p :     0.022266
      px      :     0.007463
      py      :     0.007630
  5 H s       :     0.696646  s :     0.696646
      pz      :     0.010020  p :     0.041269
      px      :     0.014992
      py      :     0.016257
  6 H s       :     0.682732  s :     0.682732
      pz      :     0.013807  p :     0.039096
      px      :     0.009586
      py      :     0.015704
  7 H s       :     0.664230  s :     0.664230
      pz      :     0.039362  p :     0.071598
      px      :     0.021196
      py      :     0.011040
  8 Pbs       :     3.963348  s :     3.963348
      pz      :     2.360319  p :     7.077505
      px      :     2.426101
      py      :     2.291085
      dz2     :     2.013798  d :    10.035244
      dxz     :     2.007363
      dyz     :     2.005828
      dx2y2   :     2.005570
      dxy     :     2.002685
      f0      :     0.007095  f :     0.046008
      f+1     :     0.008944
      f-1     :     0.006257
      f+2     :     0.005950
      f-2     :     0.005723
      f+3     :     0.006610
      f-3     :     0.005427
  9 Cls       :     5.971787  s :     5.971787
      pz      :     3.944490  p :    11.493158
      px      :     3.619442
      py      :     3.929225
      dz2     :     0.010094  d :     0.052881
      dxz     :     0.008472
      dyz     :     0.009947
      dx2y2   :     0.012716
      dxy     :     0.011652
      f0      :     0.000418  f :     0.003294
      f+1     :     0.000434
      f-1     :     0.000498
      f+2     :     0.000437
      f-2     :     0.000415
      f+3     :     0.000618
      f-3     :     0.000473
 10 Cls       :     5.951010  s :     5.951010
      pz      :     3.855209  p :    11.518817
      px      :     3.781160
      py      :     3.882448
      dz2     :     0.021456  d :     0.073646
      dxz     :     0.014280
      dyz     :     0.012696
      dx2y2   :     0.012370
      dxy     :     0.012844
      f0      :     0.001180  f :     0.005144
      f+1     :     0.001015
      f-1     :     0.000835
      f+2     :     0.000503
      f-2     :     0.000533
      f+3     :     0.000584
      f-3     :     0.000494
 11 Cls       :     5.964001  s :     5.964001
      pz      :     3.737817  p :    11.471907
      px      :     3.836719
      py      :     3.897371
      dz2     :     0.010526  d :     0.048636
      dxz     :     0.011458
      dyz     :     0.008719
      dx2y2   :     0.008408
      dxy     :     0.009526
      f0      :     0.000423  f :     0.003067
      f+1     :     0.000557
      f-1     :     0.000405
      f+2     :     0.000432
      f-2     :     0.000423
      f+3     :     0.000429
      f-3     :     0.000397


                     *******************************
                     * LOEWDIN POPULATION ANALYSIS *
                     *******************************

----------------------
LOEWDIN ATOMIC CHARGES
----------------------
   0 C :   -0.316461
   1 N :    0.026805
   2 H :    0.117707
   3 H :    0.118923
   4 H :    0.121405
   5 H :    0.143916
   6 H :    0.160969
   7 H :    0.019196
   8 Pb:    0.631449
   9 Cl:   -0.420764
  10 Cl:   -0.291285
  11 Cl:   -0.311861

-------------------------------
LOEWDIN REDUCED ORBITAL CHARGES
-------------------------------
  0 C s       :     2.854506  s :     2.854506
      pz      :     1.037716  p :     3.101949
      px      :     1.048550
      py      :     1.015682
      dz2     :     0.032799  d :     0.321150
      dxz     :     0.087315
      dyz     :     0.081929
      dx2y2   :     0.037355
      dxy     :     0.081752
      f0      :     0.005385  f :     0.038855
      f+1     :     0.004210
      f-1     :     0.006134
      f+2     :     0.004562
      f-2     :     0.007379
      f+3     :     0.005058
      f-3     :     0.006127
  1 N s       :     3.016005  s :     3.016005
      pz      :     1.263482  p :     3.758536
      px      :     1.248971
      py      :     1.246084
      dz2     :     0.025930  d :     0.186957
      dxz     :     0.052378
      dyz     :     0.044593
      dx2y2   :     0.020399
      dxy     :     0.043657
      f0      :     0.001819  f :     0.011697
      f+1     :     0.001496
      f-1     :     0.001613
      f+2     :     0.001279
      f-2     :     0.002368
      f+3     :     0.001403
      f-3     :     0.001718
  2 H s       :     0.818378  s :     0.818378
      pz      :     0.023220  p :     0.063915
      px      :     0.022046
      py      :     0.018649
  3 H s       :     0.817817  s :     0.817817
      pz      :     0.019681  p :     0.063260
      px      :     0.022735
      py      :     0.020844
  4 H s       :     0.814992  s :     0.814992
      pz      :     0.021592  p :     0.063603
      px      :     0.020918
      py      :     0.021093
  5 H s       :     0.731071  s :     0.731071
      pz      :     0.033990  p :     0.125013
      px      :     0.043373
      py      :     0.047650
  6 H s       :     0.723078  s :     0.723078
      pz      :     0.039156  p :     0.115953
      px      :     0.031720
      py      :     0.045077
  7 H s       :     0.720896  s :     0.720896
      pz      :     0.156363  p :     0.259909
      px      :     0.069692
      py      :     0.033853
  8 Pbs       :     3.935793  s :     3.935793
      pz      :     2.418730  p :     7.226838
      px      :     2.482924
      py      :     2.325184
      dz2     :     2.050253  d :    10.147721
      dxz     :     2.037457
      dyz     :     2.014969
      dx2y2   :     2.025722
      dxy     :     2.019321
      f0      :     0.008891  f :     0.058199
      f+1     :     0.014149
      f-1     :     0.007306
      f+2     :     0.007162
      f-2     :     0.006461
      f+3     :     0.008474
      f-3     :     0.005757
  9 Cls       :     5.907313  s :     5.907313
      pz      :     3.928714  p :    11.439018
      px      :     3.606517
      py      :     3.903787
      dz2     :     0.013433  d :     0.070238
      dxz     :     0.009205
      dyz     :     0.011759
      dx2y2   :     0.017808
      dxy     :     0.018033
      f0      :     0.000451  f :     0.004194
      f+1     :     0.000489
      f-1     :     0.000708
      f+2     :     0.000508
      f-2     :     0.000455
      f+3     :     0.001013
      f-3     :     0.000569
 10 Cls       :     5.798903  s :     5.798903
      pz      :     3.749809  p :    11.367330
      px      :     3.742691
      py      :     3.874830
      dz2     :     0.041613  d :     0.116024
      dxz     :     0.022646
      dyz     :     0.014915
      dx2y2   :     0.017879
      dxy     :     0.018971
      f0      :     0.002639  f :     0.009028
      f+1     :     0.002220
      f-1     :     0.001440
      f+2     :     0.000583
      f-2     :     0.000628
      f+3     :     0.000943
      f-3     :     0.000573
 11 Cls       :     5.856908  s :     5.856908
      pz      :     3.722525  p :    11.397244
      px      :     3.808826
      py      :     3.865893
      dz2     :     0.012512  d :     0.054357
      dxz     :     0.012949
      dyz     :     0.008786
      dx2y2   :     0.008660
      dxy     :     0.011448
      f0      :     0.000448  f :     0.003353
      f+1     :     0.000649
      f-1     :     0.000449
      f+2     :     0.000451
      f-2     :     0.000437
      f+3     :     0.000506
      f-3     :     0.000412


                      *****************************
                      * MAYER POPULATION ANALYSIS *
                      *****************************

  NA   - Mulliken gross atomic population
  ZA   - Total nuclear charge
  QA   - Mulliken gross atomic charge
  VA   - Mayer's total valence
  BVA  - Mayer's bonded valence
  FA   - Mayer's free valence

  ATOM       NA         ZA         QA         VA         BVA        FA
  0 C      6.2750     6.0000    -0.2750     3.9244     3.8070     0.1175
  1 N      7.2776     7.0000    -0.2776     3.2976     3.1490     0.1486
  2 H      0.8587     1.0000     0.1413     0.9641     0.9449     0.0192
  3 H      0.8614     1.0000     0.1386     0.9675     0.9484     0.0191
  4 H      0.8522     1.0000     0.1478     0.9675     0.9484     0.0190
  5 H      0.7379     1.0000     0.2621     0.9801     0.9587     0.0215
  6 H      0.7218     1.0000     0.2782     0.9679     0.9466     0.0212
  7 H      0.7358     1.0000     0.2642     1.0482     1.0261     0.0221
  8 Pb    21.1221    22.0000     0.8779     2.1256     1.7302     0.3954
  9 Cl    17.5211    17.0000    -0.5211     0.9841     0.6889     0.2952
 10 Cl    17.5486    17.0000    -0.5486     0.9921     0.7166     0.2754
 11 Cl    17.4876    17.0000    -0.4876     1.0901     0.8111     0.2791

  Mayer bond orders larger than 0.1
B(  0-C ,  1-N ) :   0.9035 B(  0-C ,  2-H ) :   0.9555 B(  0-C ,  3-H ) :   0.9572 
B(  0-C ,  4-H ) :   0.9546 B(  1-N ,  5-H ) :   0.8236 B(  1-N ,  6-H ) :   0.8343 
B(  1-N ,  7-H ) :   0.6665 B(  5-H , 11-Cl) :   0.1281 B(  6-H ,  9-Cl) :   0.1124 
B(  7-H , 10-Cl) :   0.3557 B(  8-Pb,  9-Cl) :   0.6121 B(  8-Pb, 10-Cl) :   0.4054 
B(  8-Pb, 11-Cl) :   0.6874 


-------
TIMINGS
-------

Total time                :  924.489 sec
Integral trafo            :    2.920 sec (  0.3%)
I/O of integrals          :    0.133 sec (  0.0%)
K(i,j) Operators          :   10.474 sec (  1.1%)
T(i,j) pair energies      :    1.522 sec (  0.2%)
V-calculation             :    0.016 sec (  0.0%)
V**(-1/2)                 :    0.031 sec (  0.0%)
Gamma(ia|P)               :   10.121 sec (  1.1%)
Gamma-Trafo               :    1.366 sec (  0.1%)
D(virtual)                :    4.454 sec (  0.5%)
D(internal)               :    4.645 sec (  0.5%)
W(virtual)                :    8.908 sec (  1.0%)
W(internal)               :   15.913 sec (  1.7%)
L(virtual)                :    6.251 sec (  0.7%)
L(internal)               :    0.297 sec (  0.0%)
G(D)                      :   17.053 sec (  1.8%)
G(Z)                      :   17.413 sec (  1.9%)
Z-Vector Solution         :  680.531 sec ( 73.6%)
Z-Vector Solution         :  680.531 sec ( 73.6%)
3-Index Derivative 
+ Separable RIJ part      :    5.373 sec (  0.6%)
2-Index Derivative 
+ Separable RIJ part      :    0.042 sec (  0.0%)
Separable Gradient (COSX) :  134.196 sec ( 14.5%)


---------------------------------------
MP2 TOTAL ENERGY:    -1669.423778733 Eh
---------------------------------------

The final MP2 gradient
  0:  -0.00003053   0.00977668  -0.00189836
  1:  -0.03753334   0.01041442  -0.07495858
  2:   0.00019453  -0.00478750   0.00058212
  3:  -0.00284584   0.00193376   0.00203562
  4:   0.00275656   0.00233685  -0.00188504
  5:  -0.01065106  -0.00587085   0.00455941
  6:   0.00873142  -0.00678673  -0.00770855
  7:  -0.00092520  -0.00900555  -0.00849643
  8:  -0.07368814  -0.02411048  -0.03253862
  9:   0.00620698   0.04689777   0.00522435
 10:   0.07772344  -0.02711894   0.09325652
 11:   0.03036246   0.00635360   0.02179967

-----------------------------------
NORM OF THE MP2 GRADIENT:  0.184503
-----------------------------------

Entering the calculation of the dispersion correction...

Checking the input atom types...

Done


-------------------------------------------------------------------------------
                          DFT DISPERSION CORRECTION                            
                                                                               
                                DFTD3 V2.1  Rev 6                               
                          USING Becke-Johnson damping                          
-------------------------------------------------------------------------------
The B2PLYP functional is recognized
Active option DFTDOPT                   ...         4   

molecular C6(AA) [au] = 5167.402574 


            DFT-D V3
 parameters
 s6 scaling factor         :     0.6400 
 a1 scaling factor         :     0.3065 
 s8 scaling factor         :     0.9147 
 a2 scaling factor         :     5.0570 
 ad hoc parameters k1-k3   :    16.0000     1.3333    -4.0000 

 Edisp/kcal,au: -8.531436143501  -0.013595707453 
 E6   /kcal   :  -3.961864293 
 E8   /kcal   :  -4.569571850 
 % E8         :  53.561578301 

-------------------------   ----------------
Dispersion correction           -0.013595707
-------------------------   ----------------


-------------------------   --------------------
FINAL SINGLE POINT ENERGY     -1669.437374440450
-------------------------   --------------------


                            ***************************************
                            *     ORCA property calculations      *
                            ***************************************


  WARNING: The energy has been calculated at the MP2 level but the densities
           used in the property calculations are still SCF densities
           MP2 response densities have not been calculated 
           use %mp2 Density relaxed end
           or  %mp2 Density unrelaxed end

                                    ---------------------
                                    Active property flags
                                    ---------------------
   (+) Dipole Moment


------------------------------------------------------------------------------
                       ORCA ELECTRIC PROPERTIES CALCULATION
------------------------------------------------------------------------------

Dipole Moment Calculation                       ... on
Quadrupole Moment Calculation                   ... off
Polarizability Calculation                      ... off
GBWName                                         ... PbMACl3_mp2_8.orca.gbw
Electron density file                           ... PbMACl3_mp2_8.orca.scfp.tmp

-------------
DIPOLE MOMENT
-------------
                                X             Y             Z
Electronic contribution:   -177.22239    -100.05567     -75.26439
Nuclear contribution   :    174.14514      99.85676      75.48845
                        -----------------------------------------
Total Dipole Moment    :     -3.07726      -0.19891       0.22406
                        -----------------------------------------
Magnitude (a.u.)       :      3.09181
Magnitude (Debye)      :      7.85875


                         *** MP2 UNRELAXED DENSITY ***

------------------------------------------------------------------------------
                       ORCA ELECTRIC PROPERTIES CALCULATION
------------------------------------------------------------------------------

Dipole Moment Calculation                       ... on
Quadrupole Moment Calculation                   ... off
Polarizability Calculation                      ... off
GBWName                                         ... PbMACl3_mp2_8.orca.gbw
Electron density file                           ... PbMACl3_mp2_8.orca.pmp2ur

-------------
DIPOLE MOMENT
-------------
                                X             Y             Z
Electronic contribution:   -177.05502    -100.01009     -75.23013
Nuclear contribution   :    174.14514      99.85676      75.48845
                        -----------------------------------------
Total Dipole Moment    :     -2.90988      -0.15333       0.25832
                        -----------------------------------------
Magnitude (a.u.)       :      2.92535
Magnitude (Debye)      :      7.43565


                           *** MP2 RELAXED DENSITY ***

------------------------------------------------------------------------------
                       ORCA ELECTRIC PROPERTIES CALCULATION
------------------------------------------------------------------------------

Dipole Moment Calculation                       ... on
Quadrupole Moment Calculation                   ... off
Polarizability Calculation                      ... off
GBWName                                         ... PbMACl3_mp2_8.orca.gbw
Electron density file                           ... PbMACl3_mp2_8.orca.pmp2re

-------------
DIPOLE MOMENT
-------------
                                X             Y             Z
Electronic contribution:   -176.70901     -99.90759     -75.20274
Nuclear contribution   :    174.14514      99.85676      75.48845
                        -----------------------------------------
Total Dipole Moment    :     -2.56387      -0.05083       0.28570
                        -----------------------------------------
Magnitude (a.u.)       :      2.58024
Magnitude (Debye)      :      6.55845


Timings for individual modules:

Sum of individual times         ...     1388.252 sec (=  23.138 min)
GTO integral calculation        ...        0.686 sec (=   0.011 min)   0.0 %
SCF iterations                  ...      461.779 sec (=   7.696 min)  33.3 %
MP2 module                      ...      925.786 sec (=  15.430 min)  66.7 %
                             ****ORCA TERMINATED NORMALLY****
TOTAL RUN TIME: 0 days 0 hours 23 minutes 8 seconds 840 msec
