
                                 *****************
                                 * O   R   C   A *
                                 *****************

           --- An Ab Initio, DFT and Semiempirical electronic structure package ---

                  #######################################################
                  #                        -***-                        #
                  #  Department of molecular theory and spectroscopy    #
                  #              Directorship: Frank Neese              #
                  # Max Planck Institute for Chemical Energy Conversion #
                  #                  D-45470 Muelheim/Ruhr              #
                  #                       Germany                       #
                  #                                                     #
                  #                  All rights reserved                #
                  #                        -***-                        #
                  #######################################################


                         Program Version 3.0.3 - RELEASE   -


 With contributions from (in alphabetic order):
   Ute Becker             : Parallelization
   Dmytro Bykov           : SCF Hessian
   Dmitry Ganyushin       : Spin-Orbit,Spin-Spin,Magnetic field MRCI
   Andreas Hansen         : Spin unrestricted coupled pair/coupled cluster methods
   Dimitrios Liakos       : Extrapolation schemes; parallel MDCI
   Robert Izsak           : Overlap fitted RIJCOSX, COSX-SCS-MP3
   Christian Kollmar      : KDIIS, OOCD, Brueckner-CCSD(T), CCSD density
   Simone Kossmann        : Meta GGA functionals, TD-DFT gradient, OOMP2, MP2 Hessian
   Taras Petrenko         : DFT Hessian,TD-DFT gradient, ASA and ECA modules, normal mode analysis, Resonance Raman, ABS, FL, XAS/XES, NRVS
   Christoph Reimann      : Effective Core Potentials
   Michael Roemelt        : Restricted open shell CIS
   Christoph Riplinger    : Improved optimizer, TS searches, QM/MM, DLPNO-CCSD
   Barbara Sandhoefer     : DKH picture change effects
   Igor Schapiro          : Molecular dynamics
   Kantharuban Sivalingam : CASSCF convergence, NEVPT2
   Boris Wezisla          : Elementary symmetry handling
   Frank Wennmohs         : Technical directorship


 We gratefully acknowledge several colleagues who have allowed us to
 interface, adapt or use parts of their codes:
   Stefan Grimme, W. Hujo, H. Kruse, T. Risthaus : VdW corrections, initial TS optimization,
                                                   DFT functionals, gCP
   Ed Valeev                                     : LibInt (2-el integral package), F12 methods
   Garnet Chan, S. Sharma, R. Olivares           : DMRG
   Ulf Ekstrom                                   : XCFun DFT Library
   Mihaly Kallay                                 : mrcc  (arbitrary order and MRCC methods)
   Andreas Klamt, Michael Diedenhofen            : otool_cosmo (COSMO solvation model)
   Frank Weinhold                                : gennbo (NPA and NBO analysis)
   Christopher J. Cramer and Donald G. Truhlar   : smd solvation model


 Your calculation uses the libint2 library for the computation of 2-el integrals
 For citations please refer to: http://libint.valeyev.net

 This ORCA versions uses:
   CBLAS   interface :  Fast vector & matrix operations
   LAPACKE interface :  Fast linear algebra routines
   SCALAPACK package :  Parallel linear algebra routines


Your calculation utilizes the basis: Ahlrichs-TZV
Cite in your paper:
H - Kr: A. Schaefer, H. Horn and R. Ahlrichs, J. Chem. Phys. 97, 2571 (1992).

The def2-TZV basis will be loaded
Cite in your paper:
 	F. Weigend, R. Ahlrichs, Phys. Chem. Chem. Phys. 2005, 7, 3297.

Your calculation utilizes the atom-pairwise dispersion correction
with the Becke-Johnson damping scheme (D3BJ)
Cite in your paper:
S.Grimme, S.Ehrlich, L.Goerigk, J Comput Chem, (2011), 32, 1456–1465 
S.Grimme, J.Antony, S.Ehrlich and H.Krieg, J.Chem.Phys., 132, (2010), 154104 
   

================================================================================
                                        WARNINGS
                       Please study these warnings very carefully!
================================================================================

WARNING: The RI method has been chosen with no auxiliary basis (AUX or GTOAUX in BASIS block)
        Standard TZV/J expansion basis used (GTOAUX=TZV_J)

Now building the actual basis set
cite the ECPs for Pb [SD(60,MDF)] as follows:
  B. Metz, H. Stoll, M. Dolg, J. Chem. Phys. 113, 2563 (2000).

ECP parameters for Pb [SD(60,MDF)] have been obtained from:
  pseudopotential library of the Stuttgart/Cologne group
  http://www.theochem.uni-stuttgart.de/pseudopotentials/

cite the ECP basis sets for Pb [DEF2-TZVP] as follows:
  F. Weigend, R. Ahlrichs; Phys. Chem. Chem. Phys. 7, 3297(2005).

ECP basis sets for Pb [DEF2-TZVP] have been obtained from:
  Turbomole basis set library
  ftp://ftp.chemie.uni-karlsruhe.de/pub/basen/



INFO   : the flag for use of LIBINT has been found!

================================================================================
                                       INPUT FILE
================================================================================
NAME = PbCl6NH3CH3-2_mp2_sp_8.orca
|  1> ! RIJCOSX RI-B2PLYP D3BJ def2-TZVP ECP{def2-TZVP} TIGHTSCF Grid5 FinalGrid6 MORead
|  2> %method
|  3>  RunTyp Gradient
|  4>  end
|  5> %maxcore 1000
|  6> %moinp "previous.gbw"
|  7> *xyz -2 1
|  8> C 2.821971 3.493173 2.716929 
|  9> N 2.031893 2.485380 2.005967 
| 10> H 3.493737 3.003675 3.431461 
| 11> H 2.156449 4.174155 3.259759 
| 12> H 3.419280 4.070497 2.001994 
| 13> H 1.424368 1.881241 2.639320 
| 14> H 2.617127 1.787701 1.451958 
| 15> H 1.353302 2.890520 1.291746 
| 16> Pb 0.145464 -0.018794 0.181546 
| 17> Cl 3.207685 0.195987 0.282892 
| 18> Cl 0.050933 3.029106 -0.143427 
| 19> Cl 0.058883 0.573066 3.205549 
| 20> Cl -2.927876 -0.393557 0.143272 
| 21> Cl 0.011890 -0.454799 -2.789349 
| 22> Cl 0.136831 -3.118452 0.544137 
| 23> N -1.884966 -2.527607 -1.578982 
| 24> C -2.664881 -3.549172 -2.281400 
| 25> H -2.474954 -1.829497 -1.031708 
| 26> H -1.279571 -1.925402 -2.215561 
| 27> H -3.259633 -4.123288 -1.561779 
| 28> H -1.991792 -4.230944 -2.813775 
| 29> H -3.338231 -3.073756 -3.003955 
| 30> H -1.204879 -2.923566 -0.859634 
| 31> *
| 32> 
| 33>                          ****END OF INPUT****
================================================================================

                     *******************************
                     * Energy+Gradient Calculation *
                     *******************************

---------------------------------
CARTESIAN COORDINATES (ANGSTROEM)
---------------------------------
  C      2.821971    3.493173    2.716929
  N      2.031893    2.485380    2.005967
  H      3.493737    3.003675    3.431461
  H      2.156449    4.174155    3.259759
  H      3.419280    4.070497    2.001994
  H      1.424368    1.881241    2.639320
  H      2.617127    1.787701    1.451958
  H      1.353302    2.890520    1.291746
  Pb     0.145464   -0.018794    0.181546
  Cl     3.207685    0.195987    0.282892
  Cl     0.050933    3.029106   -0.143427
  Cl     0.058883    0.573066    3.205549
  Cl    -2.927876   -0.393557    0.143272
  Cl     0.011890   -0.454799   -2.789349
  Cl     0.136831   -3.118452    0.544137
  N     -1.884966   -2.527607   -1.578982
  C     -2.664881   -3.549172   -2.281400
  H     -2.474954   -1.829497   -1.031708
  H     -1.279571   -1.925402   -2.215561
  H     -3.259633   -4.123288   -1.561779
  H     -1.991792   -4.230944   -2.813775
  H     -3.338231   -3.073756   -3.003955
  H     -1.204879   -2.923566   -0.859634

----------------------------
CARTESIAN COORDINATES (A.U.)
----------------------------
  NO LB      ZA    FRAG    MASS        X           Y           Z
   0 C     6.0000    0    12.011          5.332752347867888          6.601140308408101          5.134251735308532
   1 N     7.0000    0    14.007          3.839721303431654          4.696687538725200          3.790728263683611
   2 H     1.0000    0     1.008          6.602206113947632          5.676123145305915          6.484521529231552
   3 H     1.0000    0     1.008          4.075098031768349          7.888009790538062          6.160051772585005
   4 H     1.0000    0     1.008          6.461502775194258          7.692124558948052          3.783220381753542
   5 H     1.0000    0     1.008          2.691665433921146          3.555030281904149          4.987591979781038
   6 H     1.0000    0     1.008          4.945653287690924          3.378265299337155          2.743802977956033
   7 H     1.0000    0     1.008          2.557370156487898          5.462291184622056          2.441046174588241
   8 Pb   22.0000*   0   207.200  0.274887122344721  -0.035515512960916  0.343072220708868
   9 Cl   17.0000    0    35.453          6.061646173887191          0.370361755808824          0.534588405477251
  10 Cl   17.0000    0    35.453          0.096249421179011          5.724180770617667         -0.271037750209923
  11 Cl   17.0000    0    35.453          0.111272743943685          1.082937796661716          6.057609718865134
  12 Cl   17.0000    0    35.453         -5.532883794080819         -0.743714948087646          0.270744842659166
  13 Cl   17.0000    0    35.453          0.022468843732324         -0.859445555981251         -5.271105701927110
  14 Cl   17.0000    0    35.453          0.258573116630579         -5.893020241778995          1.028269909333508
  15 N     7.0000    0    14.007         -3.562069511753006         -4.776485004182294         -2.983843550391246
  16 C     6.0000    0    12.011         -5.035895269490199         -6.706963082181557         -4.311221201927943
  17 H     1.0000    0     1.008         -4.676985254052937         -3.457248292830528         -1.949645570175627
  18 H     1.0000    0     1.008         -2.418038758907750         -3.638482477704246         -4.186803522996702
  19 H     1.0000    0     1.008         -6.159813667092132         -7.791885091283890         -2.951334591709398
  20 H     1.0000    0     1.008         -3.763941395735278         -7.995325447957316         -5.317264152474270
  21 H     1.0000    0     1.008         -6.308342361766074         -5.808557042497251         -5.676652268623413
  22 H     1.0000    0     1.008         -2.276891334512904         -5.524739074443619         -1.624472835407261
* core charge reduced due to ECP

--------------------------------
INTERNAL COORDINATES (ANGSTROEM)
--------------------------------
 C      0   0   0   0.000000     0.000     0.000
 N      1   0   0   1.464697     0.000     0.000
 H      1   2   0   1.096099   109.861     0.000
 H      1   2   3   1.096048   109.899   239.985
 H      1   2   3   1.095999   109.864   119.972
 H      2   1   3   1.065461   114.153    59.908
 H      2   1   3   1.065918   113.984   299.878
 H      2   1   3   1.065240   114.041   179.989
 Pb     7   2   1   3.314587    98.425   180.750
 Cl     7   2   1   2.061317   163.234   175.818
 Cl     8   2   1   1.942960   161.692   172.270
 Cl     6   2   1   1.973952   160.174   170.215
 Cl     9   7   2   3.096342   144.180   356.981
 Cl     9   7   2   3.005688   119.409   126.479
 Cl     9   7   2   3.120805   119.924   233.072
 N     13   9   7   2.933938    75.076   181.979
 C     16  13   9   1.464668   126.838   179.294
 H     16  13   9   1.065341    12.826   186.981
 H     16  13   9   1.065076    98.142   307.989
 H     17  16  13   1.095990   109.842   302.169
 H     17  16  13   1.096031   109.864   182.218
 H     17  16  13   1.096132   109.921    62.179
 H     16  13   9   1.066191    95.786    53.595

---------------------------
INTERNAL COORDINATES (A.U.)
---------------------------
 C      0   0   0   0.000000     0.000     0.000
 N      1   0   0   2.767876     0.000     0.000
 H      1   2   0   2.071328   109.861     0.000
 H      1   2   3   2.071230   109.899   239.985
 H      1   2   3   2.071137   109.864   119.972
 H      2   1   3   2.013429   114.153    59.908
 H      2   1   3   2.014293   113.984   299.878
 H      2   1   3   2.013011   114.041   179.989
 Pb     7   2   1   6.263662    98.425   180.750
 Cl     7   2   1   3.895324   163.234   175.818
 Cl     8   2   1   3.671662   161.692   172.270
 Cl     6   2   1   3.730229   160.174   170.215
 Cl     9   7   2   5.851238   144.180   356.981
 Cl     9   7   2   5.679927   119.409   126.479
 Cl     9   7   2   5.897468   119.924   233.072
 N     13   9   7   5.544338    75.076   181.979
 C     16  13   9   2.767822   126.838   179.294
 H     16  13   9   2.013203    12.826   186.981
 H     16  13   9   2.012702    98.142   307.989
 H     17  16  13   2.071120   109.842   302.169
 H     17  16  13   2.071199   109.864   182.218
 H     17  16  13   2.071390   109.921    62.179
 H     16  13   9   2.014809    95.786    53.595

---------------------
BASIS SET INFORMATION
---------------------
There are 5 groups of distinct atoms

 Group   1 Type C   : 11s6p2d1f contracted to 5s3p2d1f pattern {62111/411/11/1}
 Group   2 Type N   : 11s6p2d1f contracted to 5s3p2d1f pattern {62111/411/11/1}
 Group   3 Type H   : 5s1p contracted to 3s1p pattern {311/1}
 Group   4 Type Pb  : 10s9p8d2f contracted to 6s5p3d2f pattern {421111/33111/611/11}
 Group   5 Type Cl  : 14s9p3d1f contracted to 5s5p2d1f pattern {73211/51111/21/1}

Atom   0C    basis set group =>   1
Atom   1N    basis set group =>   2
Atom   2H    basis set group =>   3
Atom   3H    basis set group =>   3
Atom   4H    basis set group =>   3
Atom   5H    basis set group =>   3
Atom   6H    basis set group =>   3
Atom   7H    basis set group =>   3
Atom   8Pb   basis set group =>   4
Atom   9Cl   basis set group =>   5
Atom  10Cl   basis set group =>   5
Atom  11Cl   basis set group =>   5
Atom  12Cl   basis set group =>   5
Atom  13Cl   basis set group =>   5
Atom  14Cl   basis set group =>   5
Atom  15N    basis set group =>   2
Atom  16C    basis set group =>   1
Atom  17H    basis set group =>   3
Atom  18H    basis set group =>   3
Atom  19H    basis set group =>   3
Atom  20H    basis set group =>   3
Atom  21H    basis set group =>   3
Atom  22H    basis set group =>   3
-------------------------------
AUXILIARY BASIS SET INFORMATION
-------------------------------
There are 5 groups of distinct atoms

 Group   1 Type C   : 12s5p4d2f1g contracted to 6s4p3d1f1g pattern {711111/2111/211/2/1}
 Group   2 Type N   : 12s5p4d2f1g contracted to 6s4p3d1f1g pattern {711111/2111/211/2/1}
 Group   3 Type H   : 5s2p1d contracted to 3s1p1d pattern {311/2/1}
 Group   4 Type Pb  : 31s12p8d6f3g contracted to 31s12p8d6f3g pattern {1111111111111111111111111111111/111111111111/11111111/111111/111}
 Group   5 Type Cl  : 14s5p5d2f1g contracted to 8s4p3d1f1g pattern {71111111/2111/311/2/1}

Atom   0C    basis set group =>   1
Atom   1N    basis set group =>   2
Atom   2H    basis set group =>   3
Atom   3H    basis set group =>   3
Atom   4H    basis set group =>   3
Atom   5H    basis set group =>   3
Atom   6H    basis set group =>   3
Atom   7H    basis set group =>   3
Atom   8Pb   basis set group =>   4
Atom   9Cl   basis set group =>   5
Atom  10Cl   basis set group =>   5
Atom  11Cl   basis set group =>   5
Atom  12Cl   basis set group =>   5
Atom  13Cl   basis set group =>   5
Atom  14Cl   basis set group =>   5
Atom  15N    basis set group =>   2
Atom  16C    basis set group =>   1
Atom  17H    basis set group =>   3
Atom  18H    basis set group =>   3
Atom  19H    basis set group =>   3
Atom  20H    basis set group =>   3
Atom  21H    basis set group =>   3
Atom  22H    basis set group =>   3

-------------------------
ECP PARAMETER INFORMATION
-------------------------

 Group 1, Type Pb ECP SD(60,MDF) (replacing 60 core electrons, lmax=5)

Atom   8Pb   ECP group =>   1


------------------------------------------------------------------------------
                           ORCA GTO INTEGRAL CALCULATION
                           -- RI-GTO INTEGRALS CHOSEN --
------------------------------------------------------------------------------

                         BASIS SET STATISTICS AND STARTUP INFO

Gaussian basis set:
 # of primitive gaussian shells          ...  343
 # of primitive gaussian functions       ...  749
 # of contracted shells                  ...  186
 # of contracted basis functions         ...  468
 Highest angular momentum                ...    3
 Maximum contraction depth               ...    7
Auxiliary gaussian basis set:
 # of primitive gaussian shells          ...  414
 # of primitive gaussian functions       ... 1110
 # of contracted shells                  ...  282
 # of contracted aux-basis functions     ...  810
 Highest angular momentum                ...    4
 Maximum contraction depth               ...    7
Ratio of auxiliary to basis functions    ...  1.73
Integral package used                  ... LIBINT
 One Electron integrals                  
   ECP integrals                         ... done
 Ordering auxiliary basis shells         ... done
 Integral threshhold             Thresh  ...  2.500e-11
 Primitive cut-off               TCut    ...  2.500e-12
 Pre-screening matrix                    ... done
 Shell pair data                         ... 
 Ordering of the shell pairs             ... done (   0.003 sec) 11362 of 17391 pairs
 Determination of significant pairs      ... done (   0.000 sec)
 Creation of shell pair data             ... done (   0.003 sec)
 Storage of shell pair data              ... done (   0.003 sec)
 Shell pair data done in (   0.008 sec)
 Computing two index integrals           ... done
 Cholesky decomposition of the V-matrix  ... done


Timings:
 Total evaluation time                   ...   1.803 sec (  0.030 min)
 One electron matrix time                ...   1.032 sec (  0.017 min) = 57.2%
 Schwartz matrix evaluation time         ...   0.601 sec (  0.010 min) = 33.3%
 Two index repulsion integral time       ...   0.028 sec (  0.000 min) =  1.5%
 Cholesky decomposition of V             ...   0.103 sec (  0.002 min) =  5.7%
 Three index repulsion integral time     ...   0.000 sec (  0.000 min) =  0.0%

-------------------------------------------------------------------------------
                                 ORCA SCF
-------------------------------------------------------------------------------

------------
SCF SETTINGS
------------
Hamiltonian:
 Density Functional     Method          .... DFT(GTOs)
 Exchange Functional    Exchange        .... B88
   X-Alpha parameter    XAlpha          ....  0.666667
   Becke's b parameter  XBeta           ....  0.004200
 Correlation Functional Correlation     .... LYP
 LDA part of GGA corr.  LDAOpt          .... VWN-3
 Gradients option       PostSCFGGA      .... off
 Hybrid DFT is turned on
   Fraction HF Exchange ScalHFX         ....  0.530000
   Scaling of DF-GGA-X  ScalDFX         ....  0.470000
   Scaling of DF-GGA-C  ScalDFC         ....  0.730000
   Scaling of DF-LDA-C  ScalLDAC        ....  0.730000
   Perturbative correction              ....  0.270000
 RI-approximation to the Coulomb term is turned on
   Number of auxiliary basis functions  .... 810
   RIJ-COSX (HFX calculated with COS-X)).... on


General Settings:
 Integral files         IntName         .... PbCl6NH3CH3-2_mp2_sp_8.orca
 Hartree-Fock type      HFTyp           .... RHF
 Total Charge           Charge          ....   -2
 Multiplicity           Mult            ....    1
 Number of Electrons    NEL             ....  164
 Basis Dimension        Dim             ....  468
 Nuclear Repulsion      ENuc            ....   1564.3218347241 Eh

Convergence Acceleration:
 DIIS                   CNVDIIS         .... on
   Start iteration      DIISMaxIt       ....    12
   Startup error        DIISStart       ....  0.200000
   # of expansion vecs  DIISMaxEq       ....     5
   Bias factor          DIISBfac        ....   1.050
   Max. coefficient     DIISMaxC        ....  10.000
 Newton-Raphson         CNVNR           .... off
 SOSCF                  CNVSOSCF        .... on
   Start iteration      SOSCFMaxIt      ....   150
   Startup grad/error   SOSCFStart      ....  0.003300
 Level Shifting         CNVShift        .... on
   Level shift para.    LevelShift      ....    0.2500
   Turn off err/grad.   ShiftErr        ....    0.0010
 Zerner damping         CNVZerner       .... off
 Static damping         CNVDamp         .... on
   Fraction old density DampFac         ....    0.7000
   Max. Damping (<1)    DampMax         ....    0.9800
   Min. Damping (>=0)   DampMin         ....    0.0000
   Turn off err/grad.   DampErr         ....    0.1000
 Fernandez-Rico         CNVRico         .... off

SCF Procedure:
 Maximum # iterations   MaxIter         ....   125
 SCF integral mode      SCFMode         .... Direct
   Integral package                     .... LIBINT
 Reset frequeny         DirectResetFreq ....    20
 Integral Threshold     Thresh          ....  2.500e-11 Eh
 Primitive CutOff       TCut            ....  2.500e-12 Eh

Convergence Tolerance:
 Convergence Check Mode ConvCheckMode   .... Total+1el-Energy
 Energy Change          TolE            ....  1.000e-08 Eh
 1-El. energy change                    ....  1.000e-05 Eh
 Orbital Gradient       TolG            ....  1.000e-05
 Orbital Rotation angle TolX            ....  1.000e-05
 DIIS Error             TolErr          ....  5.000e-07


Diagonalization of the overlap matrix:
Smallest eigenvalue                        ... 1.083e-03
Time for diagonalization                   ...    0.188 sec
Threshold for overlap eigenvalues          ... 1.000e-08
Number of eigenvalues below threshold      ... 0
Time for construction of square roots      ...    0.052 sec
Total time needed                          ...    0.241 sec

---------------------
INITIAL GUESS: MOREAD
---------------------
Guess MOs are being read from file: previous.gbw
Input geometry compatible with but different from current geometry
Input basis set matches current basis set (good)
MOs were renormalized
MOs were reorthogonalized (Schmidt)
                      ------------------
                      INITIAL GUESS DONE (   2.3 sec)
                      ------------------
-------------------
DFT GRID GENERATION
-------------------

General Integration Accuracy     IntAcc      ...  5.010
Radial Grid Type                 RadialGrid  ... Gauss-Chebyshev
Angular Grid (max. acc.)         AngularGrid ... Lebedev-434
Angular grid pruning method      GridPruning ... 3 (G Style)
Weight generation scheme         WeightScheme... Becke
Basis function cutoff            BFCut       ...    1.0000e-11
Integration weight cutoff        WCut        ...    1.0000e-14
Grids for H and He will be reduced by one unit

# of grid points (after initial pruning)     ... 212974 (   0.2 sec)
# of grid points (after weights+screening)   ... 195959 (   1.8 sec)
nearest neighbour list constructed           ...    0.0 sec
Grid point re-assignment to atoms done       ...    0.1 sec
Grid point division into batches done        ...    2.0 sec
Reduced shell lists constructed in    7.1 sec

Total number of grid points                  ...   195959
Total number of batches                      ...     3075
Average number of points per batch           ...       63
Average number of grid points per atom       ...     8520
Average number of shells per batch           ...    68.44 (36.80%)
Average number of basis functions per batch  ...   173.46 (37.06%)
Average number of large shells per batch     ...    46.34 (67.71%)
Average number of large basis fcns per batch ...   116.17 (66.97%)
Maximum spatial batch extension              ...  27.05, 27.98, 30.33 au
Average spatial batch extension              ...   2.10,  2.08,  2.11 au

Time for grid setup =    9.155 sec

--------------------
COSX GRID GENERATION
--------------------

General Integration Accuracy     IntAcc      ...  3.340
Radial Grid Type                 RadialGrid  ... Gauss-Chebyshev
Angular Grid (max. acc.)         AngularGrid ... Lebedev-50
Angular grid pruning method      GridPruning ... 3 (G Style)
Weight generation scheme         WeightScheme... Becke
Basis function cutoff            BFCut       ...    1.0000e-11
Integration weight cutoff        WCut        ...    1.0000e-14
Grids for H and He will be reduced by one unit

# of grid points (after initial pruning)     ...  11762 (   0.0 sec)
# of grid points (after weights+screening)   ...  10917 (   0.1 sec)
nearest neighbour list constructed           ...    0.0 sec
Grid point re-assignment to atoms done       ...    0.0 sec
Grid point division into batches done        ...    0.0 sec
Reduced shell lists constructed in    0.4 sec

Total number of grid points                  ...    10917
Total number of batches                      ...      183
Average number of points per batch           ...       59
Average number of grid points per atom       ...      475
Average number of shells per batch           ...    87.16 (46.86%)
Average number of basis functions per batch  ...   226.07 (48.30%)
Average number of large shells per batch     ...    59.77 (68.57%)
Average number of large basis fcns per batch ...   152.58 (67.49%)
Maximum spatial batch extension              ...  26.56, 19.36, 22.92 au
Average spatial batch extension              ...   5.66,  5.04,  5.41 au

Overlap Fitting                  UseSFitting ... on
Constructing numerical overlap ... done (      0.3 sec)
Inverting numerical overlap    ... done (      0.0 sec)
Obtaining analytic overlap     ... done (      0.0 sec)
Final contraction and storage  ... done (      0.0 sec)


General Integration Accuracy     IntAcc      ...  3.670
Radial Grid Type                 RadialGrid  ... Gauss-Chebyshev
Angular Grid (max. acc.)         AngularGrid ... Lebedev-50
Angular grid pruning method      GridPruning ... 3 (G Style)
Weight generation scheme         WeightScheme... Becke
Basis function cutoff            BFCut       ...    1.0000e-11
Integration weight cutoff        WCut        ...    1.0000e-14
Grids for H and He will be reduced by one unit

# of grid points (after initial pruning)     ...  14690 (   0.0 sec)
# of grid points (after weights+screening)   ...  13599 (   0.1 sec)
nearest neighbour list constructed           ...    0.0 sec
Grid point re-assignment to atoms done       ...    0.0 sec
Grid point division into batches done        ...    0.0 sec
Reduced shell lists constructed in    0.5 sec

Total number of grid points                  ...    13599
Total number of batches                      ...      223
Average number of points per batch           ...       60
Average number of grid points per atom       ...      591
Average number of shells per batch           ...    84.77 (45.58%)
Average number of basis functions per batch  ...   219.17 (46.83%)
Average number of large shells per batch     ...    57.81 (68.20%)
Average number of large basis fcns per batch ...   146.84 (67.00%)
Maximum spatial batch extension              ...  26.87, 19.82, 23.65 au
Average spatial batch extension              ...   5.20,  4.65,  5.16 au

Overlap Fitting                  UseSFitting ... on
Constructing numerical overlap ... done (      0.4 sec)
Inverting numerical overlap    ... done (      0.0 sec)
Obtaining analytic overlap     ... done (      0.0 sec)
Final contraction and storage  ... done (      0.0 sec)


General Integration Accuracy     IntAcc      ...  4.010
Radial Grid Type                 RadialGrid  ... Gauss-Chebyshev
Angular Grid (max. acc.)         AngularGrid ... Lebedev-110
Angular grid pruning method      GridPruning ... 3 (G Style)
Weight generation scheme         WeightScheme... Becke
Basis function cutoff            BFCut       ...    1.0000e-11
Integration weight cutoff        WCut        ...    1.0000e-14
Grids for H and He will be reduced by one unit

# of grid points (after initial pruning)     ...  27082 (   0.0 sec)
# of grid points (after weights+screening)   ...  25289 (   0.2 sec)
nearest neighbour list constructed           ...    0.0 sec
Grid point re-assignment to atoms done       ...    0.0 sec
Grid point division into batches done        ...    0.0 sec
Reduced shell lists constructed in    0.9 sec

Total number of grid points                  ...    25289
Total number of batches                      ...      406
Average number of points per batch           ...       62
Average number of grid points per atom       ...     1100
Average number of shells per batch           ...    80.28 (43.16%)
Average number of basis functions per batch  ...   206.64 (44.15%)
Average number of large shells per batch     ...    54.76 (68.21%)
Average number of large basis fcns per batch ...   139.02 (67.28%)
Maximum spatial batch extension              ...  28.64, 26.45, 26.90 au
Average spatial batch extension              ...   4.23,  4.10,  4.10 au

Overlap Fitting                  UseSFitting ... on
Constructing numerical overlap ... done (      0.6 sec)
Inverting numerical overlap    ... done (      0.0 sec)
Obtaining analytic overlap     ... done (      0.0 sec)
Final contraction and storage  ... done (      0.0 sec)

Time for X-Grid setup             =    3.683 sec
--------------
SCF ITERATIONS
--------------
ITER       Energy         Delta-E        Max-DP      RMS-DP      [F,P]     Damp
               ***  Starting incremental Fock matrix formation  ***
  0  -3145.5394944225   0.000000000000 0.00229391  0.00004303  0.0495178 0.7000
                      *** Initiating the SOSCF procedure ***
                      *** Re-Reading the Fockian *** 
                      *** Removing any level shift *** 
ITER      Energy       Delta-E        Grad      Rot      Max-DP    RMS-DP
  1  -3145.53987660  -0.0003821777  0.000732  0.000732  0.007572  0.000142
               *** Restarting incremental Fock matrix formation ***
  2  -3145.54092303  -0.0010464329  0.000807  0.002005  0.002814  0.000056
  3  -3145.54101131  -0.0000882756  0.000683  0.001215  0.002405  0.000030
  4  -3145.54103317  -0.0000218586  0.000211  0.000399  0.000825  0.000009
  5  -3145.54103539  -0.0000022222  0.000041  0.000048  0.000137  0.000002
  6  -3145.54103558  -0.0000001867  0.000012  0.000027  0.000040  0.000001
  7  -3145.54103560  -0.0000000221  0.000006  0.000019  0.000027  0.000000
  8  -3145.54103561  -0.0000000081  0.000003  0.000003  0.000008  0.000000
                  ***Gradient check signals convergence***
              ***Rediagonalizing the Fockian in SOSCF/NRSCF***

               *****************************************************
               *                     SUCCESS                       *
               *           SCF CONVERGED AFTER   9 CYCLES          *
               *****************************************************

Old exchange energy                            =   -110.593477077 Eh
New exchange energy                            =   -110.601669113 Eh
Exchange energy change after final integration =     -0.008192036 Eh
Total energy after final integration           =  -3145.549227659 Eh
Final COS-X integration done in                =    98.020 sec

----------------
TOTAL SCF ENERGY
----------------

Total Energy       :        -3145.54922766 Eh          -85594.74604 eV

Components:
Nuclear Repulsion  :         1564.32183472 Eh           42567.36121 eV
Electronic Energy  :        -4709.87106238 Eh         -128162.10724 eV

One Electron Energy:        -7577.52936558 Eh         -206195.05679 eV
Two Electron Energy:         2867.65830320 Eh           78032.94955 eV

Virial components:
Potential Energy   :        -6157.98406554 Eh         -167567.26538 eV
Kinetic Energy     :         3012.43483788 Eh           81972.51934 eV
Virial Ratio       :            2.04418831


DFT components:
N(Alpha)           :       81.999975053057 electrons
N(Beta)            :       81.999975053057 electrons
N(Total)           :      163.999950106114 electrons
E(X)               :      -98.145147457471 Eh       
E(C)               :       -4.636704350335 Eh       
E(XC)              :     -102.781851807806 Eh       

---------------
SCF CONVERGENCE
---------------

  Last Energy change         ...   -1.5875e-08  Tolerance :   1.0000e-08
  Last MAX-Density change    ...    6.2839e-14  Tolerance :   1.0000e-07
  Last RMS-Density change    ...    6.1401e-16  Tolerance :   5.0000e-09
  Last Orbital Gradient      ...    4.7228e-07  Tolerance :   1.0000e-05
  Last Orbital Rotation      ...    1.5497e-06  Tolerance :   1.0000e-05

             **** THE GBW FILE WAS UPDATED (PbCl6NH3CH3-2_mp2_sp_8.orca.gbw) ****
             **** DENSITY FILE WAS UPDATED (PbCl6NH3CH3-2_mp2_sp_8.orca.scfp.tmp) ****
             **** ENERGY FILE WAS UPDATED (PbCl6NH3CH3-2_mp2_sp_8.orca.en.tmp) ****
----------------
ORBITAL ENERGIES
----------------

  NO   OCC          E(Eh)            E(eV) 
   0   2.0000    -102.583429     -2791.4370 
   1   2.0000    -102.582797     -2791.4198 
   2   2.0000    -102.580843     -2791.3666 
   3   2.0000    -102.579424     -2791.3280 
   4   2.0000    -102.579369     -2791.3265 
   5   2.0000    -102.578550     -2791.3043 
   6   2.0000     -14.691285      -399.7702 
   7   2.0000     -14.684640      -399.5894 
   8   2.0000     -10.490810      -285.4695 
   9   2.0000     -10.487553      -285.3808 
  10   2.0000      -9.590270      -260.9645 
  11   2.0000      -9.589413      -260.9412 
  12   2.0000      -9.587238      -260.8820 
  13   2.0000      -9.586352      -260.8579 
  14   2.0000      -9.586154      -260.8525 
  15   2.0000      -9.585277      -260.8286 
  16   2.0000      -7.226655      -196.6473 
  17   2.0000      -7.226457      -196.6419 
  18   2.0000      -7.225885      -196.6263 
  19   2.0000      -7.225720      -196.6218 
  20   2.0000      -7.225522      -196.6165 
  21   2.0000      -7.224899      -196.5995 
  22   2.0000      -7.223659      -196.5658 
  23   2.0000      -7.223421      -196.5593 
  24   2.0000      -7.222759      -196.5413 
  25   2.0000      -7.222728      -196.5404 
  26   2.0000      -7.222525      -196.5349 
  27   2.0000      -7.222518      -196.5347 
  28   2.0000      -7.222356      -196.5303 
  29   2.0000      -7.221801      -196.5152 
  30   2.0000      -7.221648      -196.5110 
  31   2.0000      -7.221643      -196.5109 
  32   2.0000      -7.221493      -196.5068 
  33   2.0000      -7.220763      -196.4869 
  34   2.0000      -5.560387      -151.3058 
  35   2.0000      -3.330924       -90.6391 
  36   2.0000      -3.330469       -90.6267 
  37   2.0000      -3.330147       -90.6179 
  38   2.0000      -0.879816       -23.9410 
  39   2.0000      -0.874976       -23.8093 
  40   2.0000      -0.719481       -19.5781 
  41   2.0000      -0.719249       -19.5718 
  42   2.0000      -0.718161       -19.5422 
  43   2.0000      -0.716914       -19.5082 
  44   2.0000      -0.716770       -19.5043 
  45   2.0000      -0.633950       -17.2507 
  46   2.0000      -0.631280       -17.1780 
  47   2.0000      -0.602312       -16.3897 
  48   2.0000      -0.600583       -16.3427 
  49   2.0000      -0.598270       -16.2798 
  50   2.0000      -0.596965       -16.2442 
  51   2.0000      -0.595480       -16.2038 
  52   2.0000      -0.592483       -16.1223 
  53   2.0000      -0.410639       -11.1741 
  54   2.0000      -0.410440       -11.1686 
  55   2.0000      -0.406526       -11.0621 
  56   2.0000      -0.406058       -11.0494 
  57   2.0000      -0.362849        -9.8736 
  58   2.0000      -0.358476        -9.7546 
  59   2.0000      -0.290766        -7.9122 
  60   2.0000      -0.290600        -7.9076 
  61   2.0000      -0.289590        -7.8802 
  62   2.0000      -0.287321        -7.8184 
  63   2.0000      -0.286976        -7.8090 
  64   2.0000      -0.114956        -3.1281 
  65   2.0000      -0.110089        -2.9957 
  66   2.0000      -0.108510        -2.9527 
  67   2.0000      -0.097332        -2.6486 
  68   2.0000      -0.089436        -2.4337 
  69   2.0000      -0.086681        -2.3587 
  70   2.0000      -0.086010        -2.3404 
  71   2.0000      -0.081963        -2.2303 
  72   2.0000      -0.081648        -2.2218 
  73   2.0000      -0.081402        -2.2151 
  74   2.0000      -0.080869        -2.2005 
  75   2.0000      -0.079058        -2.1513 
  76   2.0000      -0.078009        -2.1227 
  77   2.0000      -0.077133        -2.0989 
  78   2.0000      -0.076728        -2.0879 
  79   2.0000      -0.074642        -2.0311 
  80   2.0000      -0.070580        -1.9206 
  81   2.0000      -0.043305        -1.1784 
  82   0.0000       0.241209         6.5636 
  83   0.0000       0.243072         6.6143 
  84   0.0000       0.259748         7.0681 
  85   0.0000       0.260883         7.0990 
  86   0.0000       0.265606         7.2275 
  87   0.0000       0.306967         8.3530 
  88   0.0000       0.307986         8.3807 
  89   0.0000       0.308064         8.3828 
  90   0.0000       0.308978         8.4077 
  91   0.0000       0.310166         8.4401 
  92   0.0000       0.311992         8.4897 
  93   0.0000       0.377011        10.2590 
  94   0.0000       0.378157        10.2902 
  95   0.0000       0.379624        10.3301 
  96   0.0000       0.383592        10.4381 
  97   0.0000       0.412923        11.2362 
  98   0.0000       0.413358        11.2480 
  99   0.0000       0.414643        11.2830 
 100   0.0000       0.415657        11.3106 
 101   0.0000       0.444982        12.1086 
 102   0.0000       0.461110        12.5474 
 103   0.0000       0.493074        13.4172 
 104   0.0000       0.493901        13.4397 
 105   0.0000       0.494723        13.4621 
 106   0.0000       0.498195        13.5566 
 107   0.0000       0.506846        13.7920 
 108   0.0000       0.512669        13.9504 
 109   0.0000       0.520772        14.1709 
 110   0.0000       0.525873        14.3097 
 111   0.0000       0.526865        14.3367 
 112   0.0000       0.543529        14.7902 
 113   0.0000       0.551040        14.9946 
 114   0.0000       0.553947        15.0737 
 115   0.0000       0.590662        16.0727 
 116   0.0000       0.590923        16.0798 
 117   0.0000       0.592662        16.1272 
 118   0.0000       0.604332        16.4447 
 119   0.0000       0.617291        16.7973 
 120   0.0000       0.634927        17.2773 
 121   0.0000       0.638318        17.3695 
 122   0.0000       0.639141        17.3919 
 123   0.0000       0.660932        17.9849 
 124   0.0000       0.667585        18.1659 
 125   0.0000       0.670143        18.2355 
 126   0.0000       0.679223        18.4826 
 127   0.0000       0.683233        18.5917 
 128   0.0000       0.683799        18.6071 
 129   0.0000       0.685250        18.6466 
 130   0.0000       0.694971        18.9111 
 131   0.0000       0.695436        18.9238 
 132   0.0000       0.703391        19.1403 
 133   0.0000       0.712011        19.3748 
 134   0.0000       0.712843        19.3975 
 135   0.0000       0.723686        19.6925 
 136   0.0000       0.727883        19.8067 
 137   0.0000       0.734419        19.9846 
 138   0.0000       0.736822        20.0499 
 139   0.0000       0.742894        20.2152 
 140   0.0000       0.743509        20.2319 
 141   0.0000       0.745326        20.2813 
 142   0.0000       0.747938        20.3524 
 143   0.0000       0.748632        20.3713 
 144   0.0000       0.759395        20.6642 
 145   0.0000       0.761739        20.7280 
 146   0.0000       0.771915        21.0049 
 147   0.0000       0.774239        21.0681 
 148   0.0000       0.779551        21.2127 
 149   0.0000       0.781376        21.2623 
 150   0.0000       0.788978        21.4692 
 151   0.0000       0.805441        21.9172 
 152   0.0000       0.808933        22.0122 
 153   0.0000       0.809905        22.0386 
 154   0.0000       0.811911        22.0932 
 155   0.0000       0.813234        22.1292 
 156   0.0000       0.815970        22.2037 
 157   0.0000       0.818415        22.2702 
 158   0.0000       0.823159        22.3993 
 159   0.0000       0.824638        22.4395 
 160   0.0000       0.834732        22.7142 
 161   0.0000       0.842215        22.9178 
 162   0.0000       0.844092        22.9689 
 163   0.0000       0.845733        23.0136 
 164   0.0000       0.864213        23.5164 
 165   0.0000       0.866679        23.5835 
 166   0.0000       0.870390        23.6845 
 167   0.0000       0.898978        24.4624 
 168   0.0000       0.914378        24.8815 
 169   0.0000       0.927139        25.2287 
 170   0.0000       0.929283        25.2871 
 171   0.0000       0.933231        25.3945 
 172   0.0000       0.937265        25.5043 
 173   0.0000       0.960285        26.1307 
 174   0.0000       0.972247        26.4562 
 175   0.0000       0.975341        26.5404 
 176   0.0000       0.975706        26.5503 
 177   0.0000       0.978794        26.6343 
 178   0.0000       0.979508        26.6538 
 179   0.0000       0.986752        26.8509 
 180   0.0000       0.990448        26.9515 
 181   0.0000       1.006728        27.3945 
 182   0.0000       1.008890        27.4533 
 183   0.0000       1.025675        27.9100 
 184   0.0000       1.055653        28.7258 
 185   0.0000       1.057784        28.7838 
 186   0.0000       1.070752        29.1366 
 187   0.0000       1.072279        29.1782 
 188   0.0000       1.075669        29.2704 
 189   0.0000       1.077793        29.3282 
 190   0.0000       1.079613        29.3778 
 191   0.0000       1.083752        29.4904 
 192   0.0000       1.087968        29.6051 
 193   0.0000       1.125169        30.6174 
 194   0.0000       1.127651        30.6849 
 195   0.0000       1.148884        31.2627 
 196   0.0000       1.151450        31.3325 
 197   0.0000       1.155450        31.4414 
 198   0.0000       1.192516        32.4500 
 199   0.0000       1.201353        32.6905 
 200   0.0000       1.224880        33.3307 
 201   0.0000       1.232252        33.5313 
 202   0.0000       1.269579        34.5470 
 203   0.0000       1.318302        35.8728 
 204   0.0000       1.342269        36.5250 
 205   0.0000       1.345153        36.6035 
 206   0.0000       1.416230        38.5376 
 207   0.0000       1.417844        38.5815 
 208   0.0000       1.423737        38.7419 
 209   0.0000       1.427139        38.8344 
 210   0.0000       1.438747        39.1503 
 211   0.0000       1.444173        39.2979 
 212   0.0000       1.446572        39.3632 
 213   0.0000       1.466826        39.9144 
 214   0.0000       1.469389        39.9841 
 215   0.0000       1.533911        41.7398 
 216   0.0000       1.554632        42.3037 
 217   0.0000       1.563873        42.5552 
 218   0.0000       1.587532        43.1989 
 219   0.0000       1.673963        45.5508 
 220   0.0000       1.682596        45.7858 
 221   0.0000       1.692531        46.0561 
 222   0.0000       1.702533        46.3283 
 223   0.0000       1.707688        46.4686 
 224   0.0000       1.713674        46.6314 
 225   0.0000       1.776557        48.3426 
 226   0.0000       1.779270        48.4164 
 227   0.0000       1.819382        49.5079 
 228   0.0000       1.822544        49.5939 
 229   0.0000       1.829491        49.7830 
 230   0.0000       1.834008        49.9059 
 231   0.0000       1.849443        50.3259 
 232   0.0000       1.851459        50.3808 
 233   0.0000       1.852376        50.4057 
 234   0.0000       1.854343        50.4592 
 235   0.0000       1.977865        53.8204 
 236   0.0000       1.992589        54.2211 
 237   0.0000       2.026082        55.1325 
 238   0.0000       2.029191        55.2171 
 239   0.0000       2.029406        55.2229 
 240   0.0000       2.030189        55.2443 
 241   0.0000       2.119564        57.6763 
 242   0.0000       2.120601        57.7045 
 243   0.0000       2.125627        57.8413 
 244   0.0000       2.125881        57.8482 
 245   0.0000       2.161279        58.8114 
 246   0.0000       2.169896        59.0459 
 247   0.0000       2.172012        59.1034 
 248   0.0000       2.176229        59.2182 
 249   0.0000       2.177655        59.2570 
 250   0.0000       2.179812        59.3157 
 251   0.0000       2.183121        59.4057 
 252   0.0000       2.184967        59.4560 
 253   0.0000       2.188174        59.5432 
 254   0.0000       2.198000        59.8106 
 255   0.0000       2.213483        60.2319 
 256   0.0000       2.217006        60.3278 
 257   0.0000       2.226098        60.5752 
 258   0.0000       2.229330        60.6631 
 259   0.0000       2.229967        60.6805 
 260   0.0000       2.232438        60.7477 
 261   0.0000       2.242649        61.0256 
 262   0.0000       2.249059        61.2000 
 263   0.0000       2.250531        61.2401 
 264   0.0000       2.252469        61.2928 
 265   0.0000       2.258571        61.4588 
 266   0.0000       2.259001        61.4705 
 267   0.0000       2.275830        61.9285 
 268   0.0000       2.280427        62.0536 
 269   0.0000       2.292768        62.3894 
 270   0.0000       2.296839        62.5002 
 271   0.0000       2.299451        62.5713 
 272   0.0000       2.302986        62.6674 
 273   0.0000       2.306395        62.7602 
 274   0.0000       2.310816        62.8805 
 275   0.0000       2.356731        64.1299 
 276   0.0000       2.356998        64.1372 
 277   0.0000       2.367184        64.4144 
 278   0.0000       2.370657        64.5089 
 279   0.0000       2.374056        64.6013 
 280   0.0000       2.406498        65.4841 
 281   0.0000       2.411549        65.6216 
 282   0.0000       2.416898        65.7672 
 283   0.0000       2.421826        65.9012 
 284   0.0000       2.424483        65.9735 
 285   0.0000       2.429836        66.1192 
 286   0.0000       2.433265        66.2125 
 287   0.0000       2.449071        66.6426 
 288   0.0000       2.451173        66.6998 
 289   0.0000       2.453234        66.7559 
 290   0.0000       2.454689        66.7955 
 291   0.0000       2.456361        66.8410 
 292   0.0000       2.457867        66.8820 
 293   0.0000       2.467982        67.1572 
 294   0.0000       2.472618        67.2833 
 295   0.0000       2.493343        67.8473 
 296   0.0000       2.505029        68.1653 
 297   0.0000       2.506253        68.1986 
 298   0.0000       2.506981        68.2184 
 299   0.0000       2.510274        68.3080 
 300   0.0000       2.511612        68.3444 
 301   0.0000       2.514817        68.4316 
 302   0.0000       2.515513        68.4506 
 303   0.0000       2.516577        68.4795 
 304   0.0000       2.517417        68.5024 
 305   0.0000       2.518286        68.5260 
 306   0.0000       2.519323        68.5543 
 307   0.0000       2.520230        68.5789 
 308   0.0000       2.521829        68.6224 
 309   0.0000       2.533420        68.9379 
 310   0.0000       2.534027        68.9544 
 311   0.0000       2.534641        68.9711 
 312   0.0000       2.537081        69.0375 
 313   0.0000       2.539925        69.1149 
 314   0.0000       2.546016        69.2806 
 315   0.0000       2.548085        69.3369 
 316   0.0000       2.549168        69.3664 
 317   0.0000       2.557595        69.5957 
 318   0.0000       2.560952        69.6870 
 319   0.0000       2.562964        69.7418 
 320   0.0000       2.571967        69.9868 
 321   0.0000       2.574241        70.0487 
 322   0.0000       2.579808        70.2001 
 323   0.0000       2.580452        70.2177 
 324   0.0000       2.591644        70.5222 
 325   0.0000       2.596678        70.6592 
 326   0.0000       2.613740        71.1235 
 327   0.0000       2.620919        71.3188 
 328   0.0000       2.625005        71.4300 
 329   0.0000       2.626128        71.4606 
 330   0.0000       2.631732        71.6131 
 331   0.0000       2.632966        71.6466 
 332   0.0000       2.635820        71.7243 
 333   0.0000       2.639604        71.8273 
 334   0.0000       2.642134        71.8961 
 335   0.0000       2.646947        72.0271 
 336   0.0000       2.651040        72.1385 
 337   0.0000       2.654991        72.2460 
 338   0.0000       2.658592        72.3440 
 339   0.0000       2.661606        72.4260 
 340   0.0000       2.664552        72.5062 
 341   0.0000       2.667863        72.5962 
 342   0.0000       2.704219        73.5855 
 343   0.0000       2.712526        73.8116 
 344   0.0000       2.716168        73.9107 
 345   0.0000       2.719296        73.9958 
 346   0.0000       2.728151        74.2368 
 347   0.0000       2.732899        74.3659 
 348   0.0000       2.746344        74.7318 
 349   0.0000       2.754634        74.9574 
 350   0.0000       2.762827        75.1803 
 351   0.0000       2.784397        75.7673 
 352   0.0000       2.788056        75.8669 
 353   0.0000       2.789297        75.9006 
 354   0.0000       2.794950        76.0545 
 355   0.0000       2.801378        76.2294 
 356   0.0000       2.805542        76.3427 
 357   0.0000       2.849569        77.5407 
 358   0.0000       2.853960        77.6602 
 359   0.0000       2.856191        77.7209 
 360   0.0000       2.861567        77.8672 
 361   0.0000       2.921494        79.4979 
 362   0.0000       2.948994        80.2462 
 363   0.0000       2.976776        81.0022 
 364   0.0000       2.983394        81.1823 
 365   0.0000       2.999956        81.6330 
 366   0.0000       3.004700        81.7620 
 367   0.0000       3.017736        82.1168 
 368   0.0000       3.042679        82.7955 
 369   0.0000       3.049535        82.9821 
 370   0.0000       3.063460        83.3610 
 371   0.0000       3.069386        83.5222 
 372   0.0000       3.095487        84.2325 
 373   0.0000       3.105968        84.5177 
 374   0.0000       3.124714        85.0278 
 375   0.0000       3.147457        85.6467 
 376   0.0000       3.166156        86.1555 
 377   0.0000       3.182803        86.6085 
 378   0.0000       3.347145        91.0804 
 379   0.0000       3.362265        91.4919 
 380   0.0000       3.364986        91.5659 
 381   0.0000       3.367731        91.6406 
 382   0.0000       3.371576        91.7452 
 383   0.0000       3.396245        92.4165 
 384   0.0000       3.450876        93.9031 
 385   0.0000       3.452584        93.9496 
 386   0.0000       3.456954        94.0685 
 387   0.0000       3.462120        94.2091 
 388   0.0000       3.484064        94.8062 
 389   0.0000       3.529102        96.0317 
 390   0.0000       3.559175        96.8501 
 391   0.0000       3.595640        97.8423 
 392   0.0000       3.598822        97.9289 
 393   0.0000       3.790600       103.1475 
 394   0.0000       3.796211       103.3001 
 395   0.0000       3.812440       103.7418 
 396   0.0000       3.814885       103.8083 
 397   0.0000       3.818710       103.9124 
 398   0.0000       3.821426       103.9863 
 399   0.0000       4.033685       109.7621 
 400   0.0000       4.038509       109.8934 
 401   0.0000       4.041352       109.9708 
 402   0.0000       4.052167       110.2651 
 403   0.0000       4.171547       113.5136 
 404   0.0000       4.176132       113.6383 
 405   0.0000       4.432304       120.6091 
 406   0.0000       4.434621       120.6722 
 407   0.0000       4.440536       120.8331 
 408   0.0000       4.443541       120.9149 
 409   0.0000       4.645590       126.4129 
 410   0.0000       4.649506       126.5195 
 411   0.0000       4.665069       126.9430 
 412   0.0000       4.672517       127.1456 
 413   0.0000       5.129561       139.5824 
 414   0.0000       5.130713       139.6138 
 415   0.0000       5.135139       139.7342 
 416   0.0000       5.137829       139.8074 
 417   0.0000       5.241082       142.6171 
 418   0.0000       5.249399       142.8434 
 419   0.0000       5.251366       142.8969 
 420   0.0000       5.260771       143.1529 
 421   0.0000       5.345068       145.4467 
 422   0.0000       5.362908       145.9321 
 423   0.0000       5.375718       146.2807 
 424   0.0000       5.384760       146.5268 
 425   0.0000       5.388530       146.6293 
 426   0.0000       5.399345       146.9237 
 427   0.0000       5.583721       151.9408 
 428   0.0000       5.594303       152.2287 
 429   0.0000       5.752872       156.5436 
 430   0.0000       5.756563       156.6440 
 431   0.0000       5.760628       156.7547 
 432   0.0000       5.763905       156.8438 
 433   0.0000       6.053003       164.7106 
 434   0.0000       6.059838       164.8966 
 435   0.0000      11.299873       307.4852 
 436   0.0000      11.300614       307.5053 
 437   0.0000      11.315531       307.9113 
 438   0.0000      11.327063       308.2251 
 439   0.0000      11.333371       308.3967 
 440   0.0000      11.335766       308.4619 
 441   0.0000      11.347641       308.7850 
 442   0.0000      11.363925       309.2281 
 443   0.0000      11.368458       309.3515 
 444   0.0000      11.370476       309.4064 
 445   0.0000      11.373572       309.4906 
 446   0.0000      11.375408       309.5406 
 447   0.0000      11.379473       309.6512 
 448   0.0000      11.390945       309.9634 
 449   0.0000      11.400508       310.2236 
 450   0.0000      11.415732       310.6379 
 451   0.0000      11.436506       311.2032 
 452   0.0000      11.440434       311.3100 
 453   0.0000      22.907082       623.3334 
 454   0.0000      22.917578       623.6190 
 455   0.0000      25.354376       689.9277 
 456   0.0000      25.370612       690.3695 
 457   0.0000      25.443334       692.3483 
 458   0.0000      25.461206       692.8346 
 459   0.0000      25.567143       695.7173 
 460   0.0000      25.621091       697.1853 
 461   0.0000      32.687726       889.4782 
 462   0.0000      32.711835       890.1343 
 463   0.0000      35.899069       976.8633 
 464   0.0000      36.031932       980.4787 
 465   0.0000      36.036850       980.6125 
 466   0.0000      36.191375       984.8174 
 467   0.0000     123.878896      3370.9161 

                    ********************************
                    * MULLIKEN POPULATION ANALYSIS *
                    ********************************

-----------------------
MULLIKEN ATOMIC CHARGES
-----------------------
   0 C :   -0.243452
   1 N :   -0.297697
   2 H :    0.113974
   3 H :    0.114777
   4 H :    0.115292
   5 H :    0.269252
   6 H :    0.264414
   7 H :    0.275495
   8 Pb:    1.115209
   9 Cl:   -0.727728
  10 Cl:   -0.717847
  11 Cl:   -0.723730
  12 Cl:   -0.720260
  13 Cl:   -0.716969
  14 Cl:   -0.729303
  15 N :   -0.301360
  16 C :   -0.243552
  17 H :    0.276277
  18 H :    0.263784
  19 H :    0.114836
  20 H :    0.112257
  21 H :    0.110871
  22 H :    0.275461
Sum of atomic charges:   -2.0000000

--------------------------------
MULLIKEN REDUCED ORBITAL CHARGES
--------------------------------
  0 C s       :     3.240911  s :     3.240911
      pz      :     0.996404  p :     2.915948
      px      :     0.982704
      py      :     0.936839
      dz2     :     0.007914  d :     0.080151
      dxz     :     0.020859
      dyz     :     0.019442
      dx2y2   :     0.012320
      dxy     :     0.019616
      f0      :     0.000299  f :     0.006443
      f+1     :     0.000603
      f-1     :     0.000846
      f+2     :     0.000678
      f-2     :     0.002512
      f+3     :     0.000662
      f-3     :     0.000844
  1 N s       :     3.411927  s :     3.411927
      pz      :     1.299127  p :     3.835316
      px      :     1.285519
      py      :     1.250670
      dz2     :     0.004087  d :     0.048190
      dxz     :     0.013188
      dyz     :     0.012061
      dx2y2   :     0.006299
      dxy     :     0.012555
      f0      :     0.000135  f :     0.002264
      f+1     :     0.000202
      f-1     :     0.000207
      f+2     :     0.000209
      f-2     :     0.001064
      f+3     :     0.000222
      f-3     :     0.000226
  2 H s       :     0.865003  s :     0.865003
      pz      :     0.008086  p :     0.021023
      px      :     0.007573
      py      :     0.005364
  3 H s       :     0.864201  s :     0.864201
      pz      :     0.006287  p :     0.021022
      px      :     0.007128
      py      :     0.007607
  4 H s       :     0.863663  s :     0.863663
      pz      :     0.007744  p :     0.021045
      px      :     0.006786
      py      :     0.006515
  5 H s       :     0.683988  s :     0.683988
      pz      :     0.012252  p :     0.046760
      px      :     0.017486
      py      :     0.017023
  6 H s       :     0.691675  s :     0.691675
      pz      :     0.013924  p :     0.043911
      px      :     0.010797
      py      :     0.019190
  7 H s       :     0.676689  s :     0.676689
      pz      :     0.021065  p :     0.047816
      px      :     0.019259
      py      :     0.007492
  8 Pbs       :     4.013886  s :     4.013886
      pz      :     2.243314  p :     6.711131
      px      :     2.235442
      py      :     2.232375
      dz2     :     2.042365  d :    10.132291
      dxz     :     2.014997
      dyz     :     2.016980
      dx2y2   :     2.043172
      dxy     :     2.014777
      f0      :     0.006626  f :     0.027482
      f+1     :     0.003974
      f-1     :     0.004707
      f+2     :     0.002099
      f-2     :     0.000293
      f+3     :     0.004631
      f-3     :     0.005151
  9 Cls       :     5.959583  s :     5.959583
      pz      :     3.948091  p :    11.760995
      px      :     3.894039
      py      :     3.918865
      dz2     :     0.000952  d :     0.006914
      dxz     :     0.000635
      dyz     :     0.001713
      dx2y2   :     0.002744
      dxy     :     0.000869
      f0      :     0.000031  f :     0.000236
      f+1     :     0.000039
      f-1     :     0.000021
      f+2     :     0.000040
      f-2     :     0.000032
      f+3     :     0.000062
      f-3     :     0.000010
 10 Cls       :     5.957279  s :     5.957279
      pz      :     3.927144  p :    11.751570
      px      :     3.936011
      py      :     3.888415
      dz2     :     0.001447  d :     0.008643
      dxz     :     0.003227
      dyz     :     0.000750
      dx2y2   :     0.002675
      dxy     :     0.000544
      f0      :     0.000017  f :     0.000355
      f+1     :     0.000122
      f-1     :     0.000031
      f+2     :     0.000095
      f-2     :     0.000021
      f+3     :     0.000015
      f-3     :     0.000052
 11 Cls       :     5.958304  s :     5.958304
      pz      :     3.902378  p :    11.757085
      px      :     3.928392
      py      :     3.926314
      dz2     :     0.003113  d :     0.008032
      dxz     :     0.000984
      dyz     :     0.000999
      dx2y2   :     0.000438
      dxy     :     0.002497
      f0      :     0.000086  f :     0.000310
      f+1     :     0.000018
      f-1     :     0.000028
      f+2     :     0.000006
      f-2     :     0.000058
      f+3     :     0.000052
      f-3     :     0.000061
 12 Cls       :     5.956838  s :     5.956838
      pz      :     3.937883  p :    11.754142
      px      :     3.899513
      py      :     3.916746
      dz2     :     0.001072  d :     0.008886
      dxz     :     0.000805
      dyz     :     0.003109
      dx2y2   :     0.002941
      dxy     :     0.000959
      f0      :     0.000047  f :     0.000394
      f+1     :     0.000040
      f-1     :     0.000062
      f+2     :     0.000099
      f-2     :     0.000063
      f+3     :     0.000063
      f-3     :     0.000019
 13 Cls       :     5.958781  s :     5.958781
      pz      :     3.886927  p :    11.750153
      px      :     3.941025
      py      :     3.922201
      dz2     :     0.003684  d :     0.007757
      dxz     :     0.000817
      dyz     :     0.000973
      dx2y2   :     0.000374
      dxy     :     0.001908
      f0      :     0.000108  f :     0.000278
      f+1     :     0.000019
      f-1     :     0.000025
      f+2     :     0.000005
      f-2     :     0.000038
      f+3     :     0.000052
      f-3     :     0.000031
 14 Cls       :     5.957316  s :     5.957316
      pz      :     3.931168  p :    11.763731
      px      :     3.933977
      py      :     3.898586
      dz2     :     0.001222  d :     0.007932
      dxz     :     0.003092
      dyz     :     0.000708
      dx2y2   :     0.002407
      dxy     :     0.000503
      f0      :     0.000019  f :     0.000324
      f+1     :     0.000106
      f-1     :     0.000026
      f+2     :     0.000091
      f-2     :     0.000024
      f+3     :     0.000013
      f-3     :     0.000046
 15 N s       :     3.413135  s :     3.413135
      pz      :     1.296622  p :     3.837554
      px      :     1.291929
      py      :     1.249003
      dz2     :     0.004029  d :     0.048398
      dxz     :     0.013091
      dyz     :     0.012444
      dx2y2   :     0.006429
      dxy     :     0.012405
      f0      :     0.000135  f :     0.002274
      f+1     :     0.000203
      f-1     :     0.000210
      f+2     :     0.000210
      f-2     :     0.001056
      f+3     :     0.000231
      f-3     :     0.000229
 16 C s       :     3.239565  s :     3.239565
      pz      :     0.998775  p :     2.916919
      px      :     0.983866
      py      :     0.934279
      dz2     :     0.007862  d :     0.080621
      dxz     :     0.020896
      dyz     :     0.019496
      dx2y2   :     0.012699
      dxy     :     0.019670
      f0      :     0.000290  f :     0.006447
      f+1     :     0.000597
      f-1     :     0.000848
      f+2     :     0.000684
      f-2     :     0.002475
      f+3     :     0.000666
      f-3     :     0.000888
 17 H s       :     0.674749  s :     0.674749
      pz      :     0.016036  p :     0.048974
      px      :     0.011406
      py      :     0.021532
 18 H s       :     0.691745  s :     0.691745
      pz      :     0.011823  p :     0.044471
      px      :     0.015872
      py      :     0.016777
 19 H s       :     0.864121  s :     0.864121
      pz      :     0.007824  p :     0.021044
      px      :     0.006745
      py      :     0.006474
 20 H s       :     0.866729  s :     0.866729
      pz      :     0.006160  p :     0.021014
      px      :     0.007230
      py      :     0.007624
 21 H s       :     0.868166  s :     0.868166
      pz      :     0.008145  p :     0.020963
      px      :     0.007572
      py      :     0.005246
 22 H s       :     0.677140  s :     0.677140
      pz      :     0.020659  p :     0.047399
      px      :     0.019281
      py      :     0.007459


                     *******************************
                     * LOEWDIN POPULATION ANALYSIS *
                     *******************************

----------------------
LOEWDIN ATOMIC CHARGES
----------------------
   0 C :   -0.325036
   1 N :    0.039105
   2 H :    0.109416
   3 H :    0.109799
   4 H :    0.109825
   5 H :    0.133608
   6 H :    0.145844
   7 H :    0.129450
   8 Pb:    0.210237
   9 Cl:   -0.534848
  10 Cl:   -0.503342
  11 Cl:   -0.519472
  12 Cl:   -0.504538
  13 Cl:   -0.502594
  14 Cl:   -0.527361
  15 N :    0.035505
  16 C :   -0.327688
  17 H :    0.122769
  18 H :    0.142632
  19 H :    0.109798
  20 H :    0.108586
  21 H :    0.108090
  22 H :    0.130214

-------------------------------
LOEWDIN REDUCED ORBITAL CHARGES
-------------------------------
  0 C s       :     2.849151  s :     2.849151
      pz      :     1.050164  p :     3.101143
      px      :     1.040847
      py      :     1.010132
      dz2     :     0.031234  d :     0.335273
      dxz     :     0.086119
      dyz     :     0.084228
      dx2y2   :     0.045432
      dxy     :     0.088260
      f0      :     0.004608  f :     0.039469
      f+1     :     0.004316
      f-1     :     0.006673
      f+2     :     0.004115
      f-2     :     0.006880
      f+3     :     0.005721
      f-3     :     0.007157
  1 N s       :     3.018615  s :     3.018615
      pz      :     1.267912  p :     3.778225
      px      :     1.262837
      py      :     1.247476
      dz2     :     0.014314  d :     0.154373
      dxz     :     0.040124
      dyz     :     0.038562
      dx2y2   :     0.021181
      dxy     :     0.040193
      f0      :     0.001220  f :     0.009681
      f+1     :     0.001119
      f-1     :     0.001462
      f+2     :     0.000992
      f-2     :     0.001903
      f+3     :     0.001346
      f-3     :     0.001640
  2 H s       :     0.830702  s :     0.830702
      pz      :     0.022458  p :     0.059882
      px      :     0.021078
      py      :     0.016346
  3 H s       :     0.830328  s :     0.830328
      pz      :     0.018025  p :     0.059873
      px      :     0.021124
      py      :     0.020724
  4 H s       :     0.830231  s :     0.830231
      pz      :     0.022729  p :     0.059944
      px      :     0.019135
      py      :     0.018081
  5 H s       :     0.719337  s :     0.719337
      pz      :     0.042271  p :     0.147054
      px      :     0.053368
      py      :     0.051415
  6 H s       :     0.719275  s :     0.719275
      pz      :     0.041618  p :     0.134881
      px      :     0.036769
      py      :     0.056494
  7 H s       :     0.718808  s :     0.718808
      pz      :     0.066209  p :     0.151742
      px      :     0.060095
      py      :     0.025438
  8 Pbs       :     3.933730  s :     3.933730
      pz      :     2.402068  p :     7.180291
      px      :     2.390188
      py      :     2.388036
      dz2     :     2.219751  d :    10.604583
      dxz     :     2.052742
      dyz     :     2.064391
      dx2y2   :     2.217308
      dxy     :     2.050391
      f0      :     0.017893  f :     0.071160
      f+1     :     0.010129
      f-1     :     0.011967
      f+2     :     0.005001
      f-2     :     0.000635
      f+3     :     0.012156
      f-3     :     0.013380
  9 Cls       :     5.859740  s :     5.859740
      pz      :     3.927262  p :    11.662946
      px      :     3.840562
      py      :     3.895122
      dz2     :     0.001548  d :     0.011662
      dxz     :     0.000727
      dyz     :     0.003072
      dx2y2   :     0.005127
      dxy     :     0.001188
      f0      :     0.000050  f :     0.000500
      f+1     :     0.000072
      f-1     :     0.000036
      f+2     :     0.000096
      f-2     :     0.000077
      f+3     :     0.000147
      f-3     :     0.000022
 10 Cls       :     5.847837  s :     5.847837
      pz      :     3.894729  p :    11.639976
      px      :     3.905026
      py      :     3.840221
      dz2     :     0.002439  d :     0.014762
      dxz     :     0.005903
      dyz     :     0.000789
      dx2y2   :     0.005113
      dxy     :     0.000519
      f0      :     0.000022  f :     0.000767
      f+1     :     0.000277
      f-1     :     0.000063
      f+2     :     0.000234
      f-2     :     0.000029
      f+3     :     0.000036
      f-3     :     0.000106
 11 Cls       :     5.853512  s :     5.853512
      pz      :     3.849316  p :    11.651526
      px      :     3.903157
      py      :     3.899052
      dz2     :     0.005754  d :     0.013763
      dxz     :     0.001304
      dyz     :     0.001689
      dx2y2   :     0.000476
      dxy     :     0.004540
      f0      :     0.000198  f :     0.000672
      f+1     :     0.000038
      f-1     :     0.000060
      f+2     :     0.000007
      f-2     :     0.000135
      f+3     :     0.000103
      f-3     :     0.000130
 12 Cls       :     5.847794  s :     5.847794
      pz      :     3.912030  p :    11.640559
      px      :     3.846989
      py      :     3.881540
      dz2     :     0.001645  d :     0.015326
      dxz     :     0.001047
      dyz     :     0.005794
      dx2y2   :     0.005278
      dxy     :     0.001562
      f0      :     0.000082  f :     0.000859
      f+1     :     0.000073
      f-1     :     0.000124
      f+2     :     0.000238
      f-2     :     0.000140
      f+3     :     0.000152
      f-3     :     0.000049
 13 Cls       :     5.846872  s :     5.846872
      pz      :     3.831799  p :    11.641592
      px      :     3.914475
      py      :     3.895317
      dz2     :     0.007073  d :     0.013531
      dxz     :     0.000980
      dyz     :     0.001451
      dx2y2   :     0.000438
      dxy     :     0.003588
      f0      :     0.000245  f :     0.000599
      f+1     :     0.000029
      f-1     :     0.000053
      f+2     :     0.000007
      f-2     :     0.000093
      f+3     :     0.000113
      f-3     :     0.000059
 14 Cls       :     5.856278  s :     5.856278
      pz      :     3.900752  p :    11.656949
      px      :     3.905574
      py      :     3.850624
      dz2     :     0.001975  d :     0.013432
      dxz     :     0.005668
      dyz     :     0.000760
      dx2y2   :     0.004511
      dxy     :     0.000517
      f0      :     0.000025  f :     0.000701
      f+1     :     0.000237
      f-1     :     0.000050
      f+2     :     0.000226
      f-2     :     0.000037
      f+3     :     0.000034
      f-3     :     0.000091
 15 N s       :     3.019484  s :     3.019484
      pz      :     1.267177  p :     3.780676
      px      :     1.264424
      py      :     1.249075
      dz2     :     0.014199  d :     0.154607
      dxz     :     0.039867
      dyz     :     0.039137
      dx2y2   :     0.021409
      dxy     :     0.039995
      f0      :     0.001204  f :     0.009727
      f+1     :     0.001099
      f-1     :     0.001493
      f+2     :     0.000987
      f-2     :     0.001932
      f+3     :     0.001354
      f-3     :     0.001657
 16 C s       :     2.849183  s :     2.849183
      pz      :     1.051326  p :     3.102091
      px      :     1.042180
      py      :     1.008586
      dz2     :     0.030764  d :     0.336890
      dxz     :     0.086004
      dyz     :     0.084993
      dx2y2   :     0.047340
      dxy     :     0.087790
      f0      :     0.004510  f :     0.039523
      f+1     :     0.004195
      f-1     :     0.006738
      f+2     :     0.004172
      f-2     :     0.006819
      f+3     :     0.005691
      f-3     :     0.007398
 17 H s       :     0.719694  s :     0.719694
      pz      :     0.050232  p :     0.157537
      px      :     0.039642
      py      :     0.067663
 18 H s       :     0.720565  s :     0.720565
      pz      :     0.040362  p :     0.136803
      px      :     0.047408
      py      :     0.049033
 19 H s       :     0.830323  s :     0.830323
      pz      :     0.022914  p :     0.059879
      px      :     0.019039
      py      :     0.017925
 20 H s       :     0.831550  s :     0.831550
      pz      :     0.017758  p :     0.059864
      px      :     0.021350
      py      :     0.020756
 21 H s       :     0.832150  s :     0.832150
      pz      :     0.022631  p :     0.059760
      px      :     0.021104
      py      :     0.016025
 22 H s       :     0.719483  s :     0.719483
      pz      :     0.064908  p :     0.150304
      px      :     0.060066
      py      :     0.025330


                      *****************************
                      * MAYER POPULATION ANALYSIS *
                      *****************************

  NA   - Mulliken gross atomic population
  ZA   - Total nuclear charge
  QA   - Mulliken gross atomic charge
  VA   - Mayer's total valence
  BVA  - Mayer's bonded valence
  FA   - Mayer's free valence

  ATOM       NA         ZA         QA         VA         BVA        FA
  0 C      6.2435     6.0000    -0.2435     3.9518     3.9518     0.0000
  1 N      7.2977     7.0000    -0.2977     3.1160     3.1160    -0.0000
  2 H      0.8860     1.0000     0.1140     0.9663     0.9663     0.0000
  3 H      0.8852     1.0000     0.1148     0.9664     0.9664     0.0000
  4 H      0.8847     1.0000     0.1153     0.9665     0.9665     0.0000
  5 H      0.7307     1.0000     0.2693     1.0242     1.0242     0.0000
  6 H      0.7356     1.0000     0.2644     1.0231     1.0231     0.0000
  7 H      0.7245     1.0000     0.2755     1.0181     1.0181    -0.0000
  8 Pb    20.8848    22.0000     1.1152     1.5387     1.5387    -0.0000
  9 Cl    17.7277    17.0000    -0.7277     0.4963     0.4963    -0.0000
 10 Cl    17.7178    17.0000    -0.7178     0.5134     0.5134    -0.0000
 11 Cl    17.7237    17.0000    -0.7237     0.5020     0.5020     0.0000
 12 Cl    17.7203    17.0000    -0.7203     0.5092     0.5092     0.0000
 13 Cl    17.7170    17.0000    -0.7170     0.5133     0.5133    -0.0000
 14 Cl    17.7293    17.0000    -0.7293     0.4943     0.4943     0.0000
 15 N      7.3014     7.0000    -0.3014     3.1084     3.1084     0.0000
 16 C      6.2436     6.0000    -0.2436     3.9558     3.9558     0.0000
 17 H      0.7237     1.0000     0.2763     1.0199     1.0199     0.0000
 18 H      0.7362     1.0000     0.2638     1.0201     1.0201    -0.0000
 19 H      0.8852     1.0000     0.1148     0.9673     0.9673    -0.0000
 20 H      0.8877     1.0000     0.1123     0.9662     0.9662     0.0000
 21 H      0.8891     1.0000     0.1109     0.9658     0.9658     0.0000
 22 H      0.7245     1.0000     0.2755     1.0190     1.0190     0.0000

  Mayer bond orders larger than 0.1
B(  0-C ,  1-N ) :   0.9572 B(  0-C ,  2-H ) :   0.9795 B(  0-C ,  3-H ) :   0.9790 
B(  0-C ,  4-H ) :   0.9788 B(  1-N ,  5-H ) :   0.7600 B(  1-N ,  6-H ) :   0.7811 
B(  1-N ,  7-H ) :   0.7559 B(  5-H , 11-Cl) :   0.2673 B(  6-H ,  9-Cl) :   0.2449 
B(  7-H , 10-Cl) :   0.2663 B(  8-Pb,  9-Cl) :   0.2670 B(  8-Pb, 10-Cl) :   0.2581 
B(  8-Pb, 11-Cl) :   0.2475 B(  8-Pb, 12-Cl) :   0.2436 B(  8-Pb, 13-Cl) :   0.2889 
B(  8-Pb, 14-Cl) :   0.2404 B( 12-Cl, 17-H ) :   0.2764 B( 13-Cl, 18-H ) :   0.2377 
B( 14-Cl, 22-H ) :   0.2652 B( 15-N , 16-C ) :   0.9591 B( 15-N , 17-H ) :   0.7469 
B( 15-N , 18-H ) :   0.7832 B( 15-N , 22-H ) :   0.7576 B( 16-C , 19-H ) :   0.9792 
B( 16-C , 20-H ) :   0.9793 B( 16-C , 21-H ) :   0.9797 

-------
TIMINGS
-------

Total SCF time: 0 days 0 hours 9 min 55 sec 

Total time                  ....     595.559 sec
Sum of individual times     ....     495.921 sec  ( 83.3%)

Fock matrix formation       ....     478.822 sec  ( 80.4%)
  Coulomb formation         ....     422.423 sec  ( 88.2% of F)
  Split-RI-J                ....      27.489 sec  (  5.7% of F)
  Chain of spheres X        ....     492.862 sec  (102.9% of F)
  COS-X 1 center corr.      ....       0.000 sec  (  0.0% of F)
  XC integration            ....      56.500 sec  ( 11.8% of F)
    Basis function eval.    ....      18.810 sec  ( 33.3% of XC)
    Density eval.           ....      17.701 sec  ( 31.3% of XC)
    XC-Functional eval.     ....       3.408 sec  (  6.0% of XC)
    XC-Potential eval.      ....      15.214 sec  ( 26.9% of XC)
Diagonalization             ....       0.381 sec  (  0.1%)
Density matrix formation    ....       0.162 sec  (  0.0%)
Population analysis         ....       0.475 sec  (  0.1%)
Initial guess               ....       2.260 sec  (  0.4%)
Orbital Transformation      ....       0.000 sec  (  0.0%)
Orbital Orthonormalization  ....       2.237 sec  (  0.4%)
DIIS solution               ....       0.109 sec  (  0.0%)
SOSCF solution              ....       0.874 sec  (  0.1%)
Grid generation             ....      12.838 sec  (  2.2%)

------------------------------------------------------------------------------
                              ORCA MP2 CALCULATION
------------------------------------------------------------------------------


----------------------
RI-MP2 ENERGY+GRADIENT
----------------------
Dimension of the basis                    ...  468
Memory devoted to MP2                     ... 1000 MB   
Data format for buffers                   ... DOUBLE
Compression type for matrix containers    ... UNCOMPRESSED
Overall scaling of the MP2 energy         ...   2.700e-01 Eh
Calculating two index integrals           ... done (    0.025 sec)
Cholesky decomposition of the V-matrix    ... done
Cholesky decomposition of V**-1           ... done (    0.116 sec)

-----------------
RI-TRANSFORMATION (AUX index driven)
-----------------

Dimension of the orbital-basis         ... 468
Dimension of the aux-basis             ... 810
Transformation of internal MOs         ...    0-  81
Transformation of internal/external MOs...    0-  81 to   82- 467
Number Format for Storage              ... Double (8 Byte)
Integral mode                          ... Direct

First Phase: integral generation and transformation of MO indices
  Aux angular momentum 0               ... done (    2.803 sec)
  Aux angular momentum 1               ... done (    2.778 sec)
  Aux angular momentum 2               ... done (    3.494 sec)
  Aux angular momentum 3               ... done (    1.712 sec)
  Aux angular momentum 4               ... done (    1.680 sec)
Closing buffer VIJ ( 0.02 GB; CompressionRatio= 1.98)
Closing buffer VIA ( 0.19 GB; CompressionRatio= 1.00)
  Phase 1 completed in    12.588 sec
Second Phase: sorting and transformation of aux index

IJ-Transformation
Memory available                       ... 972 MB 
Max. # MO pairs treated in a batch     ... 82    
# of internal orbitals                 ... 82
# batches for internal orbitals        ... 1
Closing buffer IJV ( 0.02 GB; CompressionRatio= 1.00)
(ij|v) transformation done in     1.122 sec

IA-Transformation
Memory available                       ... 972 MB 
Max. # MO pairs treated in a batch     ... 82    
# of internal orbitals                 ... 82
# batches for internal orbitals        ... 1
Closing buffer IAV ( 0.19 GB; CompressionRatio= 1.00)
(ia|v) transformation done in     4.908 sec

  Phase 2 completed in     6.993 sec
RI-Integral transformation completed in    19.582 sec
Opening buffers                              ... done

Starting loop over batches of integrals:

Operator 0  - window                       ... (  0- 81)x( 82-467)
Operator 0  - Memory available             ...  1000 MB
Operator 0  - Memory needed per MO         ...   4.8 MB
Operator 0  - Number of orbitals per batch ... 82
Operator 0  - Number of batches            ... 1

OPERATOR  0   PASS   0:  MOs     0 ...   81
  Reading integrals       ... ok
  Internal MO   2
  Internal MO   5
  Internal MO   8
  Internal MO  11
  Internal MO  14
  Internal MO  17
  Internal MO  20
  Internal MO  23
  Internal MO  26
  Internal MO  29
  Internal MO  32
  Internal MO  35
  Internal MO  38
  Internal MO  41
  Internal MO  44
  Internal MO  47
  Internal MO  50
  Internal MO  53
  Internal MO  56
  Internal MO  59
  Internal MO  62
  Internal MO  65
  Internal MO  68
  Internal MO  71
  Internal MO  74
  Internal MO  77
  Internal MO  80
Closing buffer GIPV ( 0.23 GB; CompressionRatio= 1.00)
Time spent in pair loops =  1105.586 sec

-----------------------------------------------
 RI-MP2 CORRELATION ENERGY:     -1.014413500 Eh
-----------------------------------------------


---------------------
MP2 DENSITY FORMATION
---------------------

Completing the external part of the density      ... done
Storing the unrelaxed density                    ... done

Calculating the xc-kernel                        ... done
Calculating G(D)                                 ... done
Completing the Lagrangian                        ... done
Solving the Z-vector equations                   ... 

------------------------------------------------------------------------------
                           ORCA CP-SCF CALCULATION
------------------------------------------------------------------------------

Input orbitals are from        ... PbCl6NH3CH3-2_mp2_sp_8.orca.gbw
Input Perturbation             ... PbCl6NH3CH3-2_mp2_sp_8.orca.pin.tmp
Wavefunction output            ... PbCl6NH3CH3-2_mp2_sp_8.orca.pout.tmp
Perturbation mode              ... Real perturbation
Solver                         ... POPLE
Max. number of iterations      ... 128
Convergence tolerance          ... 1.000e-08
[...]
      pz      :     0.008321  p :     0.021718
      px      :     0.007788
      py      :     0.005609
 22 H s       :     0.685844  s :     0.685844
      pz      :     0.020554  p :     0.047549
      px      :     0.019226
      py      :     0.007769


                     *******************************
                     * LOEWDIN POPULATION ANALYSIS *
                     *******************************

----------------------
LOEWDIN ATOMIC CHARGES
----------------------
   0 C :   -0.339352
   1 N :    0.033315
   2 H :    0.111940
   3 H :    0.112315
   4 H :    0.112329
   5 H :    0.130559
   6 H :    0.142935
   7 H :    0.126486
   8 Pb:    0.146870
   9 Cl:   -0.516663
  10 Cl:   -0.485806
  11 Cl:   -0.501820
  12 Cl:   -0.487265
  13 Cl:   -0.484597
  14 Cl:   -0.509828
  15 N :    0.029745
  16 C :   -0.342020
  17 H :    0.119790
  18 H :    0.139712
  19 H :    0.112303
  20 H :    0.111115
  21 H :    0.110633
  22 H :    0.127305

-------------------------------
LOEWDIN REDUCED ORBITAL CHARGES
-------------------------------
  0 C s       :     2.849965  s :     2.849965
      pz      :     1.052256  p :     3.107727
      px      :     1.042997
      py      :     1.012474
      dz2     :     0.033284  d :     0.340600
      dxz     :     0.086527
      dyz     :     0.084690
      dx2y2   :     0.047450
      dxy     :     0.088649
      f0      :     0.004840  f :     0.041060
      f+1     :     0.004510
      f-1     :     0.006860
      f+2     :     0.004291
      f-2     :     0.007263
      f+3     :     0.005943
      f-3     :     0.007353
  1 N s       :     3.020624  s :     3.020624
      pz      :     1.264805  p :     3.768138
      px      :     1.259531
      py      :     1.243802
      dz2     :     0.016658  d :     0.166767
      dxz     :     0.042802
      dyz     :     0.041063
      dx2y2   :     0.023539
      dxy     :     0.042706
      f0      :     0.001421  f :     0.011155
      f+1     :     0.001308
      f-1     :     0.001646
      f+2     :     0.001175
      f-2     :     0.002223
      f+3     :     0.001550
      f-3     :     0.001832
  2 H s       :     0.826019  s :     0.826019
      pz      :     0.023197  p :     0.062041
      px      :     0.021814
      py      :     0.017030
  3 H s       :     0.825668  s :     0.825668
      pz      :     0.018715  p :     0.062017
      px      :     0.021816
      py      :     0.021485
  4 H s       :     0.825573  s :     0.825573
      pz      :     0.023424  p :     0.062098
      px      :     0.019849
      py      :     0.018824
  5 H s       :     0.721348  s :     0.721348
      pz      :     0.042749  p :     0.148093
      px      :     0.053643
      py      :     0.051701
  6 H s       :     0.720946  s :     0.720946
      pz      :     0.042019  p :     0.136120
      px      :     0.037272
      py      :     0.056828
  7 H s       :     0.720829  s :     0.720829
      pz      :     0.066400  p :     0.152685
      px      :     0.060323
      py      :     0.025963
  8 Pbs       :     3.910955  s :     3.910955
      pz      :     2.430872  p :     7.267561
      px      :     2.419526
      py      :     2.417162
      dz2     :     2.209574  d :    10.568917
      dxz     :     2.047805
      dyz     :     2.058988
      dx2y2   :     2.207245
      dxy     :     2.045305
      f0      :     0.022502  f :     0.105698
      f+1     :     0.015116
      f-1     :     0.016880
      f+2     :     0.010211
      f-2     :     0.005756
      f+3     :     0.017024
      f-3     :     0.018209
  9 Cls       :     5.857223  s :     5.857223
      pz      :     3.910040  p :    11.604801
      px      :     3.818515
      py      :     3.876246
      dz2     :     0.009407  d :     0.051457
      dxz     :     0.008658
      dyz     :     0.011060
      dx2y2   :     0.013166
      dxy     :     0.009167
      f0      :     0.000430  f :     0.003182
      f+1     :     0.000451
      f-1     :     0.000414
      f+2     :     0.000484
      f-2     :     0.000459
      f+3     :     0.000536
      f-3     :     0.000407
 10 Cls       :     5.845467  s :     5.845467
      pz      :     3.876336  p :    11.582077
      px      :     3.887085
      py      :     3.818656
      dz2     :     0.010408  d :     0.054785
      dxz     :     0.014014
      dyz     :     0.008756
      dx2y2   :     0.013141
      dxy     :     0.008466
      f0      :     0.000405  f :     0.003476
      f+1     :     0.000674
      f-1     :     0.000445
      f+2     :     0.000630
      f-2     :     0.000412
      f+3     :     0.000420
      f-3     :     0.000491
 11 Cls       :     5.851064  s :     5.851064
      pz      :     3.827956  p :    11.593660
      px      :     3.884993
      py      :     3.880711
      dz2     :     0.013817  d :     0.053724
      dxz     :     0.009281
      dyz     :     0.009679
      dx2y2   :     0.008351
      dxy     :     0.012597
      f0      :     0.000592  f :     0.003373
      f+1     :     0.000424
      f-1     :     0.000448
      f+2     :     0.000384
      f-2     :     0.000523
      f+3     :     0.000488
      f-3     :     0.000516
 12 Cls       :     5.845423  s :     5.845423
      pz      :     3.894509  p :    11.582849
      px      :     3.825581
      py      :     3.862759
      dz2     :     0.009564  d :     0.055420
      dxz     :     0.009014
      dyz     :     0.013901
      dx2y2   :     0.013363
      dxy     :     0.009579
      f0      :     0.000465  f :     0.003573
      f+1     :     0.000455
      f-1     :     0.000512
      f+2     :     0.000634
      f-2     :     0.000528
      f+3     :     0.000542
      f-3     :     0.000437
 13 Cls       :     5.844514  s :     5.844514
      pz      :     3.810061  p :    11.583299
      px      :     3.896642
      py      :     3.876596
      dz2     :     0.015149  d :     0.053485
      dxz     :     0.008952
      dyz     :     0.009451
      dx2y2   :     0.008310
      dxy     :     0.011624
      f0      :     0.000642  f :     0.003298
      f+1     :     0.000416
      f-1     :     0.000442
      f+2     :     0.000383
      f-2     :     0.000478
      f+3     :     0.000497
      f-3     :     0.000439
 14 Cls       :     5.853790  s :     5.853790
      pz      :     3.882587  p :    11.599249
      px      :     3.887619
      py      :     3.829043
      dz2     :     0.009923  d :     0.053389
      dxz     :     0.013769
      dyz     :     0.008705
      dx2y2   :     0.012530
      dxy     :     0.008463
      f0      :     0.000407  f :     0.003400
      f+1     :     0.000631
      f-1     :     0.000431
      f+2     :     0.000621
      f-2     :     0.000419
      f+3     :     0.000417
      f-3     :     0.000475
 15 N s       :     3.021512  s :     3.021512
      pz      :     1.264015  p :     3.770425
      px      :     1.261199
      py      :     1.245210
      dz2     :     0.016544  d :     0.167114
      dxz     :     0.042536
      dyz     :     0.041712
      dx2y2   :     0.023786
      dxy     :     0.042535
      f0      :     0.001404  f :     0.011206
      f+1     :     0.001289
      f-1     :     0.001678
      f+2     :     0.001172
      f-2     :     0.002252
      f+3     :     0.001562
      f-3     :     0.001849
 16 C s       :     2.850002  s :     2.850002
      pz      :     1.053414  p :     3.108630
      px      :     1.044319
      py      :     1.010897
      dz2     :     0.032778  d :     0.342271
      dxz     :     0.086409
      dyz     :     0.085568
      dx2y2   :     0.049375
      dxy     :     0.088140
      f0      :     0.004741  f :     0.041116
      f+1     :     0.004393
      f-1     :     0.006926
      f+2     :     0.004348
      f-2     :     0.007201
      f+3     :     0.005919
      f-3     :     0.007588
 17 H s       :     0.721818  s :     0.721818
      pz      :     0.050488  p :     0.158392
      px      :     0.040121
      py      :     0.067783
 18 H s       :     0.722265  s :     0.722265
      pz      :     0.040872  p :     0.138023
      px      :     0.047779
      py      :     0.049371
 19 H s       :     0.825669  s :     0.825669
      pz      :     0.023609  p :     0.062028
      px      :     0.019753
      py      :     0.018666
 20 H s       :     0.826844  s :     0.826844
      pz      :     0.018457  p :     0.062041
      px      :     0.022045
      py      :     0.021540
 21 H s       :     0.827432  s :     0.827432
      pz      :     0.023378  p :     0.061935
      px      :     0.021846
      py      :     0.016711
 22 H s       :     0.721405  s :     0.721405
      pz      :     0.065120  p :     0.151289
      px      :     0.060311
      py      :     0.025858


                      *****************************
                      * MAYER POPULATION ANALYSIS *
                      *****************************

  NA   - Mulliken gross atomic population
  ZA   - Total nuclear charge
  QA   - Mulliken gross atomic charge
  VA   - Mayer's total valence
  BVA  - Mayer's bonded valence
  FA   - Mayer's free valence

  ATOM       NA         ZA         QA         VA         BVA        FA
  0 C      6.2696     6.0000    -0.2696     3.9997     3.8818     0.1179
  1 N      7.2898     7.0000    -0.2898     3.1996     3.0525     0.1471
  2 H      0.8814     1.0000     0.1186     0.9690     0.9491     0.0198
  3 H      0.8807     1.0000     0.1193     0.9691     0.9493     0.0198
  4 H      0.8802     1.0000     0.1198     0.9692     0.9494     0.0198
  5 H      0.7402     1.0000     0.2598     1.0324     1.0103     0.0221
  6 H      0.7442     1.0000     0.2558     1.0311     1.0088     0.0223
  7 H      0.7337     1.0000     0.2663     1.0260     1.0042     0.0218
  8 Pb    20.9713    22.0000     1.0287     1.9827     1.6203     0.3623
  9 Cl    17.7026    17.0000    -0.7026     0.7800     0.5226     0.2574
 10 Cl    17.6927    17.0000    -0.6927     0.7965     0.5392     0.2573
 11 Cl    17.6987    17.0000    -0.6987     0.7851     0.5281     0.2571
 12 Cl    17.6952    17.0000    -0.6952     0.7922     0.5351     0.2571
 13 Cl    17.6913    17.0000    -0.6913     0.7978     0.5398     0.2581
 14 Cl    17.7046    17.0000    -0.7046     0.7771     0.5202     0.2569
 15 N      7.2937     7.0000    -0.2937     3.1928     3.0452     0.1476
 16 C      6.2698     6.0000    -0.2698     4.0034     3.8853     0.1182
 17 H      0.7333     1.0000     0.2667     1.0280     1.0062     0.0218
 18 H      0.7453     1.0000     0.2547     1.0286     1.0063     0.0222
 19 H      0.8807     1.0000     0.1193     0.9700     0.9502     0.0198
 20 H      0.8831     1.0000     0.1169     0.9689     0.9490     0.0199
 21 H      0.8845     1.0000     0.1155     0.9685     0.9485     0.0199
 22 H      0.7334     1.0000     0.2666     1.0267     1.0048     0.0218

  Mayer bond orders larger than 0.1
B(  0-C ,  1-N ) :   0.9396 B(  0-C ,  2-H ) :   0.9607 B(  0-C ,  3-H ) :   0.9603 
B(  0-C ,  4-H ) :   0.9600 B(  1-N ,  5-H ) :   0.7409 B(  1-N ,  6-H ) :   0.7612 
B(  1-N ,  7-H ) :   0.7370 B(  5-H , 11-Cl) :   0.2728 B(  6-H ,  9-Cl) :   0.2506 
B(  7-H , 10-Cl) :   0.2716 B(  8-Pb,  9-Cl) :   0.2805 B(  8-Pb, 10-Cl) :   0.2706 
B(  8-Pb, 11-Cl) :   0.2601 B(  8-Pb, 12-Cl) :   0.2557 B(  8-Pb, 13-Cl) :   0.3020 
B(  8-Pb, 14-Cl) :   0.2531 B( 12-Cl, 17-H ) :   0.2815 B( 13-Cl, 18-H ) :   0.2440 
B( 14-Cl, 22-H ) :   0.2703 B( 15-N , 16-C ) :   0.9413 B( 15-N , 17-H ) :   0.7283 
B( 15-N , 18-H ) :   0.7633 B( 15-N , 22-H ) :   0.7385 B( 16-C , 19-H ) :   0.9604 
B( 16-C , 20-H ) :   0.9604 B( 16-C , 21-H ) :   0.9609 


-------
TIMINGS
-------

Total time                : 2117.704 sec
Integral trafo            :   19.594 sec (  0.9%)
I/O of integrals          :    0.775 sec (  0.0%)
K(i,j) Operators          :  172.871 sec (  8.2%)
T(i,j) pair energies      :   18.612 sec (  0.9%)
V-calculation             :    0.025 sec (  0.0%)
V**(-1/2)                 :    0.116 sec (  0.0%)
Gamma(ia|P)               :  168.115 sec (  7.9%)
Gamma-Trafo               :   11.710 sec (  0.6%)
D(virtual)                :   82.013 sec (  3.9%)
D(internal)               :  130.192 sec (  6.1%)
W(virtual)                :  164.319 sec (  7.8%)
W(internal)               :  300.947 sec ( 14.2%)
L(virtual)                :   49.369 sec (  2.3%)
L(internal)               :    2.711 sec (  0.1%)
G(D)                      :   53.697 sec (  2.5%)
G(Z)                      :   55.890 sec (  2.6%)
Z-Vector Solution         :  407.088 sec ( 19.2%)
Z-Vector Solution         :  407.088 sec ( 19.2%)
3-Index Derivative 
+ Separable RIJ part      :   22.993 sec (  1.1%)
2-Index Derivative 
+ Separable RIJ part      :    0.168 sec (  0.0%)
Separable Gradient (COSX) :  446.440 sec ( 21.1%)


---------------------------------------
MP2 TOTAL ENERGY:    -3146.563641159 Eh
---------------------------------------

The final MP2 gradient
  0:  -0.00119982   0.00011885  -0.00018196
  1:  -0.00280608   0.00733376   0.00278009
  2:   0.00300336  -0.00216338   0.00322610
  3:  -0.00258696   0.00344186   0.00269436
  4:   0.00278246   0.00259581  -0.00305200
  5:  -0.00221891  -0.00373959   0.00345491
  6:   0.00363228  -0.00605667  -0.00499346
  7:  -0.00344051   0.00166918  -0.00304469
  8:   0.00172405   0.00109831   0.00028553
  9:   0.00477861  -0.00293673  -0.00208630
 10:   0.00103533   0.00221813   0.00133844
 11:  -0.00098219   0.00080578   0.00162090
 12:  -0.00068252  -0.00404344  -0.00233758
 13:   0.00035475   0.00122686  -0.00319692
 14:  -0.00146384  -0.00270520  -0.00007998
 15:  -0.00582026  -0.00198491   0.00600605
 16:  -0.00067035   0.00003368   0.00076699
 17:  -0.00302091   0.00297022   0.00163335
 18:   0.00612221   0.00538298  -0.00572083
 19:  -0.00287063  -0.00280892   0.00286242
 20:   0.00308236  -0.00272332  -0.00230748
 21:  -0.00292334   0.00200652  -0.00322019
 22:   0.00397950  -0.00139184   0.00330594

-----------------------------------
NORM OF THE MP2 GRADIENT:  0.025744
-----------------------------------

Entering the calculation of the dispersion correction...

Checking the input atom types...

Done


-------------------------------------------------------------------------------
                          DFT DISPERSION CORRECTION                            
                                                                               
                                DFTD3 V2.1  Rev 6                               
                          USING Becke-Johnson damping                          
-------------------------------------------------------------------------------
The B2PLYP functional is recognized
Active option DFTDOPT                   ...         4   

molecular C6(AA) [au] = 13707.391457 


            DFT-D V3
 parameters
 s6 scaling factor         :     0.6400 
 a1 scaling factor         :     0.3065 
 s8 scaling factor         :     0.9147 
 a2 scaling factor         :     5.0570 
 ad hoc parameters k1-k3   :    16.0000     1.3333    -4.0000 

 Edisp/kcal,au: -17.516734984735  -0.027914691077 
 E6   /kcal   :  -8.245546424 
 E8   /kcal   :  -9.271188560 
 % E8         :  52.927606477 

-------------------------   ----------------
Dispersion correction           -0.027914691
-------------------------   ----------------


-------------------------   --------------------
FINAL SINGLE POINT ENERGY     -3146.591555850175
-------------------------   --------------------


                            ***************************************
                            *     ORCA property calculations      *
                            ***************************************


  WARNING: The energy has been calculated at the MP2 level but the densities
           used in the property calculations are still SCF densities
           MP2 response densities have not been calculated 
           use %mp2 Density relaxed end
           or  %mp2 Density unrelaxed end

                                    ---------------------
                                    Active property flags
                                    ---------------------
   (+) Dipole Moment


------------------------------------------------------------------------------
                       ORCA ELECTRIC PROPERTIES CALCULATION
------------------------------------------------------------------------------

Dipole Moment Calculation                       ... on
Quadrupole Moment Calculation                   ... off
Polarizability Calculation                      ... off
GBWName                                         ... PbCl6NH3CH3-2_mp2_sp_8.orca.gbw
Electron density file                           ... PbCl6NH3CH3-2_mp2_sp_8.orca.scfp.tmp

-------------
DIPOLE MOMENT
-------------
                                X             Y             Z
Electronic contribution:      5.49177       0.87961      -2.65509
Nuclear contribution   :     -5.41495      -0.72301       2.55758
                        -----------------------------------------
Total Dipole Moment    :      0.07682       0.15660      -0.09751
                        -----------------------------------------
Magnitude (a.u.)       :      0.19983
Magnitude (Debye)      :      0.50793


                         *** MP2 UNRELAXED DENSITY ***

------------------------------------------------------------------------------
                       ORCA ELECTRIC PROPERTIES CALCULATION
------------------------------------------------------------------------------

Dipole Moment Calculation                       ... on
Quadrupole Moment Calculation                   ... off
Polarizability Calculation                      ... off
GBWName                                         ... PbCl6NH3CH3-2_mp2_sp_8.orca.gbw
Electron density file                           ... PbCl6NH3CH3-2_mp2_sp_8.orca.pmp2ur

-------------
DIPOLE MOMENT
-------------
                                X             Y             Z
Electronic contribution:      5.49123       0.87965      -2.65537
Nuclear contribution   :     -5.41495      -0.72301       2.55758
                        -----------------------------------------
Total Dipole Moment    :      0.07628       0.15664      -0.09779
                        -----------------------------------------
Magnitude (a.u.)       :      0.19979
Magnitude (Debye)      :      0.50783


                           *** MP2 RELAXED DENSITY ***

------------------------------------------------------------------------------
                       ORCA ELECTRIC PROPERTIES CALCULATION
------------------------------------------------------------------------------

Dipole Moment Calculation                       ... on
Quadrupole Moment Calculation                   ... off
Polarizability Calculation                      ... off
GBWName                                         ... PbCl6NH3CH3-2_mp2_sp_8.orca.gbw
Electron density file                           ... PbCl6NH3CH3-2_mp2_sp_8.orca.pmp2re

-------------
DIPOLE MOMENT
-------------
                                X             Y             Z
Electronic contribution:      5.49189       0.87791      -2.65354
Nuclear contribution   :     -5.41495      -0.72301       2.55758
                        -----------------------------------------
Total Dipole Moment    :      0.07694       0.15489      -0.09596
                        -----------------------------------------
Magnitude (a.u.)       :      0.19779
Magnitude (Debye)      :      0.50274


Timings for individual modules:

Sum of individual times         ...     2723.760 sec (=  45.396 min)
GTO integral calculation        ...        4.599 sec (=   0.077 min)   0.2 %
SCF iterations                  ...      599.985 sec (=  10.000 min)  22.0 %
MP2 module                      ...     2119.176 sec (=  35.320 min)  77.8 %
                             ****ORCA TERMINATED NORMALLY****
TOTAL RUN TIME: 0 days 0 hours 45 minutes 25 seconds 466 msec
